<?xml version="1.0"?>
<VTKFile type="UnstructuredGrid"  version="0.1"  >
<UnstructuredGrid>
<Piece  NumberOfPoints="2036" NumberOfCells="8592">
<Points>
<DataArray  type="Float64"  NumberOfComponents="3"  format="ascii">6.123031769111886e-17 -1.499660721822137e-32 1  6.123031769111886e-17 -1.499660721822137e-32 -1  -10 -10 2  -10 -10 -10  -10 10 2  -10 10 -10  10 -10 -10  10 -10 2  10 10 2  10 10 -10  0.7071067811865455 -1.731854914143866e-16 -0.7071067811865496  1 -2.449212707644755e-16 -4.685813369265102e-15  0.7071067811865496 -1.731854914143876e-16 0.7071067811865455  -10 -10 -8.5  -10 -10 -7  -10 -10 -5.5  -10 -10 -4  -10 -10 -2.5  -10 -10 -1  -10 -10 0.5  -10 -8.571428571428573 2  -10 -7.142857142857146 2  -10 -5.714285714285722 2  -10 -4.285714285714298 2  -10 -2.857142857142868 2  -10 -1.428571428571439 2  -10 -8.881784197001252e-15 2  -10 1.42857142857142 2  -10 2.857142857142851 2  -10 4.285714285714281 2  -10 5.71428571428571 2  -10 7.142857142857139 2  -10 8.571428571428569 2  -10 10 -8.5  -10 10 -7  -10 10 -5.5  -10 10 -4  -10 10 -2.5  -10 10 -1  -10 10 0.5  -10 -8.571428571428573 -10  -10 -7.142857142857146 -10  -10 -5.714285714285722 -10  -10 -4.285714285714298 -10  -10 -2.857142857142868 -10  -10 -1.428571428571439 -10  -10 -8.881784197001252e-15 -10  -10 1.42857142857142 -10  -10 2.857142857142851 -10  -10 4.285714285714281 -10  -10 5.71428571428571 -10  -10 7.142857142857139 -10  -10 8.571428571428569 -10  -8.571428571428573 -10 -10  -7.142857142857146 -10 -10  -5.714285714285722 -10 -10  -4.285714285714298 -10 -10  -2.857142857142868 -10 -10  -1.428571428571439 -10 -10  -8.881784197001252e-15 -10 -10  1.42857142857142 -10 -10  2.857142857142851 -10 -10  4.285714285714281 -10 -10  5.71428571428571 -10 -10  7.142857142857139 -10 -10  8.571428571428569 -10 -10  10 -10 -8.5  10 -10 -7  10 -10 -5.5  10 -10 -4  10 -10 -2.5  10 -10 -1  10 -10 0.5  -8.571428571428573 -10 2  -7.142857142857146 -10 2  -5.714285714285722 -10 2  -4.285714285714298 -10 2  -2.857142857142868 -10 2  -1.428571428571439 -10 2  -8.881784197001252e-15 -10 2  1.42857142857142 -10 2  2.857142857142851 -10 2  4.285714285714281 -10 2  5.71428571428571 -10 2  7.142857142857139 -10 2  8.571428571428569 -10 2  -8.571428571428573 10 2  -7.142857142857146 10 2  -5.714285714285722 10 2  -4.285714285714298 10 2  -2.857142857142868 10 2  -1.428571428571439 10 2  -8.881784197001252e-15 10 2  1.42857142857142 10 2  2.857142857142851 10 2  4.285714285714281 10 2  5.71428571428571 10 2  7.142857142857139 10 2  8.571428571428569 10 2  10 -8.571428571428573 2  10 -7.142857142857146 2  10 -5.714285714285722 2  10 -4.285714285714298 2  10 -2.857142857142868 2  10 -1.428571428571439 2  10 -8.881784197001252e-15 2  10 1.42857142857142 2  10 2.857142857142851 2  10 4.285714285714281 2  10 5.71428571428571 2  10 7.142857142857139 2  10 8.571428571428569 2  -8.571428571428573 10 -10  -7.142857142857146 10 -10  -5.714285714285722 10 -10  -4.285714285714298 10 -10  -2.857142857142868 10 -10  -1.428571428571439 10 -10  -8.881784197001252e-15 10 -10  1.42857142857142 10 -10  2.857142857142851 10 -10  4.285714285714281 10 -10  5.71428571428571 10 -10  7.142857142857139 10 -10  8.571428571428569 10 -10  10 10 -8.5  10 10 -7  10 10 -5.5  10 10 -4  10 10 -2.5  10 10 -1  10 10 0.5  10 -8.571428571428573 -10  10 -7.142857142857146 -10  10 -5.714285714285722 -10  10 -4.285714285714298 -10  10 -2.857142857142868 -10  10 -1.428571428571439 -10  10 -8.881784197001252e-15 -10  10 1.42857142857142 -10  10 2.857142857142851 -10  10 4.285714285714281 -10  10 5.71428571428571 -10  10 7.142857142857139 -10  10 8.571428571428569 -10  -0.317236419161913 0.849325749936668 -0.4219085503421843  -0.8134013278496541 -0.1551833488826632 -0.5606214481109165  -0.8016589025474467 0.185622697491992 0.5682316588700596  -0.3335886767383632 -0.8423548634831164 0.4232692744793654  -1.2988911856079e-16 -0.707106781186546 -0.7071067811865491  4.329637285359688e-17 0.7071067811865491 0.7071067811865459  0.5772396916626744 -0.729640455818977 0.3666321638938081  -0.1977209852193621 -0.499271243678426 0.8435843984093604  2.343182813884231e-17 0.3826834323650908 0.9238795325112863  0.7071067811865487 0.5000000000000019 0.4999999999999964  -0.4526572842520222 0.104811991578035 0.8855031504376649  -0.6904859476553927 -0.3994409151486028 0.6030556453559496  -0.4578209680571685 0.5098306434856705 0.728335551905977  0.5842788635737585 0.7268153983371402 -0.3610506700187408  -0.1881188037410459 0.5036437634955343 -0.8431810453106096  -7.029548441652655e-17 -0.3826834323650888 -0.9238795325112872  0.7071067811865459 -0.4999999999999987 -0.5000000000000036  -0.4604061260116152 -0.08783777704107942 -0.8833519819729043  -0.6848526708798441 0.420457638699303 -0.5951404819436755  -0.4686576437695898 -0.4968259170074825 -0.7304272866795232  -0.19657317840092 0.9644317963799911 0.1767209542318722  -0.2071748976672084 -0.9622915286344441 -0.1762769857212412  -0.9998113434874113 0.01884363533643067 0.004711140117325749  -0.7307493921198475 0.6759237742441153 0.09556347277105337  -0.7514932606364763 -0.6535743474848346 -0.08999139696509964  -10 -2.857142857142867 -4.000000000000001  -10 2.562578989896643 -4.273464698074423  -10 -6.017466438545475 -1.795227737981561  -10 -6.052709263684087 -6.210358976451033  -10 0.188571428571418 -1.644897959183673  -10 0.1885714285714197 -6.355102040816327  -10 6.084186685003058 -1.675700817459555  -10 5.354904776502927 -5.87260324177616  -10 -3.076802755523126 -0.840132871597584  -10 -3.020599603456292 -7.175830067443194  -10 3.198461096064912 -0.8262217614533203  -10 2.790660946220342 -7.619914087441515  -10 7.821952339863337 -3.895237209959369  -10 -7.741809932055684 -4.010101482751947  -10 -0.4237430464010963 -3.999999999999999  -10 -7.775277008813774 -7.595548847399481  -10 -7.769403204624005 -0.4087494325899357  -10 -5.154461498172699 -4.107549892389207  -10 7.793880313668208 -0.364222947340096  -10 7.672333328918185 -7.525573465852314  -10 -5.714285714285722 -8.352832625193901  -10 -5.714285714285722 0.3528326251939014  -10 5.449294096042577 -8.203618159013997  -10 5.71428571428571 0.3856003433783535  -10 -7.105427357601002e-15 0.4526282880453429  -10 -8.881784197001252e-15 -8.452628288045343  -10 5.004416777466174 -3.308645545744564  -10 -8.884701602312003 0.7956252837050322  -10 -8.884701602312003 -0.7043747162949678  -10 -7.456130173740576 0.7956252837050322  -10 -8.887638504406887 -7.297774423699741  -10 -8.887638504406887 -8.797774423699741  -10 -7.45906707583546 -8.797774423699741  -10 8.896940156834106 0.817888526329952  -10 7.468368728262675 0.817888526329952  -10 8.896940156834106 -0.682111473670048  -10 8.836166664459093 -8.762786732926157  -10 8.836166664459093 -7.262786732926157  -10 7.407595235887662 -8.762786732926157  -10 -8.870904966027842 -4.005050741375974  -10 -8.870904966027842 -5.505050741375974  -10 -7.758543470434729 -5.802825165075714  -10 -8.870904966027842 -2.505050741375974  -10 -7.755606568339845 -2.209425457670942  -10 -5.000000000000011 1.176416312596951  -10 -6.428571428571434 1.176416312596951  -10 -6.741844459454864 -0.02795840369801716  -10 -2.252687092047283 0.5799335642012089  -10 -3.681258520618712 0.5799335642012089  -10 -4.395544234904424 -0.2436501232018422  -10 0.7142857142857064 1.226314144022671  -10 -0.7142857142857224 1.226314144022671  -10 -1.538401377761566 -0.1937522917761214  -10 3.742087690889598 0.5868891192733408  -10 2.313516262318167 0.5868891192733408  -10 1.599230548032452 -0.1867967367039896  -10 6.428571428571423 1.192800171689177  -10 4.999999999999996 1.192800171689177  -10 4.456373405175311 -0.2203107090374843  -10 6.75408301397696 0.01068869801912875  -10 8.910976169931669 -5.447618604979684  -10 8.910976169931669 -3.947618604979684  -10 7.747142834390761 -5.710405337905842  -10 8.910976169931669 -2.447618604979684  -10 7.807916326765771 -2.129730078649732  -10 -6.428571428571434 -9.176416312596951  -10 -5.000000000000011 -9.176416312596951  -10 -6.744781361549748 -7.974190736296691  -10 -3.653156944585294 -8.587915033721597  -10 -2.224585516013866 -8.587915033721597  -10 -4.367442658871007 -7.764331346318547  -10 -0.7142857142857242 -9.226314144022671  -10 0.7142857142857046 -9.226314144022671  -10 -1.51029980172815 -7.814229177744268  -10 2.109616187395881 -8.809957043720757  -10 3.538187615967312 -8.809957043720757  -10 1.395330473110167 -8.036271187743429  -10 4.867504190878428 -9.101809079506999  -10 6.296075619449859 -9.101809079506999  -10 4.11997752113146 -7.911766123227756  -10 6.560813712480382 -7.864595812433155  -10 -1.334285714285725 -2.822448979591837  -10 -2.966972806332997 -2.420066435798793  -10 -1.444115663475854 -1.242515415390628  -10 -0.1175858089148392 -2.822448979591837  -10 -1.640442951771982 -4  -10 -1.334285714285723 -5.177551020408163  -10 -1.416014087442436 -6.76546605412976  -10 -2.938871230299579 -5.587915033721597  -10 -0.1175858089148392 -5.177551020408163  -10 -4.005802177657783 -4.053774946194604  -10 -4.115632126847912 -2.473841381993395  -10 -4.087530550814495 -5.6416899799162  -10 1.375575209234031 -2.959181328629048  -10 1.693516262318166 -1.235559860318496  -10 2.880520042980777 -2.549843229763871  -10 1.069417971747773 -4.136732349037211  -10 1.375575209234032 -5.314283369445375  -10 2.676619968058493 -5.946689392757969  -10 1.489616187395882 -6.987508064128921  -10 3.958741883199785 -5.073033969925291  -10 4.072782861361635 -6.746258664608837  -10 3.783497883681409 -3.791055121909494  -10 5.179660776984552 -4.590624393760362  -10 4.101438936765543 -2.067433653598942  -10 -4.547134597034301 -1.317680304789572  -10 -5.585963968359087 -2.951388815185384  -10 -5.865876076415599 -0.7211975563938289  -10 -6.87963818530058 -2.902664610366754  -10 -6.893434821584741 -1.101988585285749  -10 -6.448135715114192 -4.058825687570577  -10 -4.53665443357019 -6.693094521947113  -10 -5.603585380928394 -5.15895443442012  -10 -5.883497488984904 -7.281595800822467  -10 -6.897259597869885
[...]
<PointData  Scalars="uA"> 
<DataArray  type="Float64"  Name="uA"  format="ascii">1.2251413111211171e+00  8.5724333810948761e-01  3.4532750532131071e-04  2.6314139157368667e-06  3.0991788809318509e-04  3.5788619075327551e-06  2.9964018538953042e-06  5.1070517513555663e-04  3.8233308599847532e-04  -4.3928780410154547e-08  8.4561037310552856e-01  9.3755998320214640e-01  1.1355243826748680e+00  5.9943759182867078e-06  2.6424189245164533e-06  -5.3321002218552771e-07  3.0019584803809455e-05  1.1512122750255703e-04  2.5358618260632441e-04  3.5370311103372483e-04  8.1830139267104424e-04  2.6438385938450269e-03  7.4984857539217454e-03  1.7928522603721304e-02  2.9392776195466711e-02  4.0469295000082159e-02  4.4931448701002921e-02  4.0298490371551220e-02  3.0628615599339642e-02  1.6131024194565267e-02  7.4314307397968125e-03  2.4596594522480262e-03  6.6600265509080838e-04  4.0940378339688833e-06  7.1225151598332005e-06  -2.3857719026682133e-05  -7.3666339203318072e-05  -3.3200215961961415e-05  8.9674870228310808e-05  2.0929442598985291e-04  4.8235084629880166e-06  3.5054443564853616e-06  -1.7821418100602936e-06  -2.3266441519558812e-05  -2.3402165836057486e-05  3.3283760592884408e-06  1.5927528356827977e-05  1.1785684847822164e-05  4.1967475674320435e-05  9.9247778257966088e-06  -1.1401638695555494e-06  4.8416610462403008e-06  2.1411672339519045e-06  5.6603968384127861e-06  5.1875628522888633e-06  3.8345246436887894e-06  -1.9964257515856973e-05  -7.6767897136525461e-05  -4.5609142415966696e-07  2.7366376349194974e-05  1.3188918285186243e-05  4.9631527265328972e-05  -1.8308601714269293e-05  -1.4059038293401997e-05  -1.9829356759686635e-06  5.3551218916752382e-06  6.4213446259228926e-06  1.5516527803713517e-05  1.2043176081712728e-05  -9.1554515032325129e-06  -1.9616417668498288e-05  1.9924284652094698e-04  5.9584189959389965e-04  9.1965198877140488e-04  2.9073832993158511e-03  7.4618070403102725e-03  1.6051641459386257e-02  3.0690994500905833e-02  3.8787514169280821e-02  4.8229597903905796e-02  4.5369066119518353e-02  3.2913176047241463e-02  1.6314737242324608e-02  7.0220220125363254e-03  2.9841325231473796e-03  1.0881854464397530e-03  8.4693606497573688e-04  2.7334640006280004e-03  7.7149802563108438e-03  1.7996302589118100e-02  2.9877437755906597e-02  4.5349323701294617e-02  5.1554873041980670e-02  4.5172696591841803e-02  2.6855030731506076e-02  1.4942923303347379e-02  6.6664314223252585e-03  2.2835344500585293e-03  8.2753830792647583e-04  1.0735537541990679e-03  2.7123481290916101e-03  6.3452583265287167e-03  1.6770399952530400e-02  2.9871942845448259e-02  4.0488023651442523e-02  4.5942274556277564e-02  4.6018004796176237e-02  3.3755839784652575e-02  1.6764285105349771e-02  6.9896792733054186e-03  2.6213463439213693e-03  8.8413182348291296e-04  4.8834514121752963e-06  -1.4941648665491898e-05  -2.9596451150263790e-06  -2.3695767045564220e-05  -1.1624177145421161e-05  -1.5366481825634690e-04  -1.1250767709835594e-04  -1.1886810361880156e-05  1.6964275924880958e-05  2.8023083670945558e-05  1.5497117857141097e-05  2.0547367256563295e-06  -3.4022940615723016e-07  1.8318838866995010e-06  5.5029381745226058e-06  -3.8081277014044905e-05  -8.2930607612803151e-05  -3.5322945768235495e-05  1.8114626876023179e-04  3.2127478770238447e-04  2.1867582195988414e-06  4.7079800925652275e-07  3.2119738981059874e-06  -1.4292867474514992e-05  -2.5778110468634785e-05  8.3410219464898934e-06  5.0893360739793120e-06  -6.8384444203053903e-06  -2.7554488558365329e-06  -7.0556981144062190e-06  -1.1455118365424102e-05  -4.0302236656267347e-06  -1.0797067243896204e-06  9.3701523125010788e-01  1.0130014357653518e+00  1.2646012810212364e+00  1.1914650665422875e+00  9.3359074455462010e-01  1.2175201362086043e+00  1.0831710032794439e+00  1.2530105823401605e+00  1.2262643796884136e+00  1.1123196955444030e+00  1.2902759234813885e+00  1.2905234922488653e+00  1.2646943420071386e+00  9.1401499381313223e-01  8.4212436838925009e-01  8.7271360666324704e-01  8.6634695145249907e-01  8.8500888139129474e-01  9.3370180037235850e-01  9.5091916344120708e-01  1.0690230249529629e+00  1.0509377713889241e+00  1.1252854426886800e+00  1.1295665416624525e+00  1.2214605564349512e+00  5.6840699602067248e-03  3.9402346885026151e-03  2.2020680625230685e-03  1.4055035414912390e-04  2.9358833426171078e-02  2.0732332837306491e-03  3.0382448765725175e-03  4.0056338524455169e-04  1.6026636815255374e-02  1.0221299504320341e-04  2.2188171577656703e-02  3.8720417723499061e-04  -2.5857445109237734e-04  1.1573205870213507e-04  1.0834480080473262e-02  -1.9571002400778964e-06  4.3971244792539305e-04  1.2573752988448905e-03  5.4254963238217118e-04  -2.8199303875827637e-05  -1.6189304730406372e-05  5.5047767846902497e-03  -1.4363052050027009e-05  6.5151621103091174e-03  3.9341679973449999e-02  2.0078695752458127e-04  5.2810190725845751e-03  6.1226107205978588e-04  3.6031715772552570e-04  2.1029690828140522e-03  -2.7533553494974297e-06  4.9644324566710570e-06  5.3233675533216710e-06  4.0064898941524172e-04  1.4980260877474842e-03  1.8764447801348914e-04  7.6355454144611779e-06  9.0969931533508719e-07  -6.9840057352023237e-06  5.3320696327368159e-05  4.6807828815085088e-06  -5.8808376947636946e-05  1.6366412194220828e-04  4.5704108780849511e-04  1.3225640930099607e-02  3.9350207645344618e-03  2.2799659158564130e-03  3.3145137717593649e-02  2.2702294769739548e-02  1.3302346387818201e-02  4.3658544169761636e-02  4.6033560590050732e-02  3.6409384042646070e-02  1.8616971229676052e-02  3.1927821565605204e-02  3.3931640727608750e-02  4.2744454149999805e-03  1.2269076965905141e-02  1.4345244700129803e-02  2.0056619279126440e-03  -3.8281010462009007e-05  -1.1518954461068912e-04  -7.5806965756809958e-05  6.1491844557715034e-05  3.0547584622244947e-04  -1.0554087439131707e-06  -2.1052165810064874e-05  -2.9130874680547141e-06  -5.5311703456779521e-05  -2.4085034922079247e-05  -6.5870831772330257e-05  3.2854502891550682e-05  6.7612230106417525e-05  3.3640729697712135e-06  9.1439879711326452e-05  2.6431257148793210e-05  3.2725725530674402e-04  -8.1268437498277266e-07  -3.3092358168108917e-06  1.2915959506003975e-05  -2.5394631399084581e-05  1.6430158752779676e-02  1.1927417784336170e-02  3.1264353800039162e-02  1.8730434312810410e-02  8.2146933915474823e-03  4.9550432744724614e-03  1.2195992362996498e-03  7.8161709887253534e-04  6.6992317333138046e-03  2.3779098418283966e-03  5.2116019638667153e-03  -1.4383662841542215e-04  1.4662587325271445e-02  2.5858590513627534e-02  9.3058146378905068e-03  7.1922160083459745e-03  4.1694656177977503e-03  2.4471466966445258e-03  1.2795338090972601e-03  1.7543512706481709e-03  1.6799149840636629e-04  5.4704667292886332e-03  1.8364061693614759e-03  1.0888924269114312e-02  8.7306757578679978e-03  7.9650394805565357e-04  4.6243951467112099e-03  3.0659174292949206e-04  1.1670610899136501e-03  4.5114316670527099e-04  -8.8579927800326144e-06  5.8937134340118129e-04  -6.7517929929131188e-06  -1.5298858006581611e-05  2.1267194560077365e-07  3.8044845378298185e-02  7.9295621611930327e-04  7.6969255048880943e-03  4.7394389020047950e-03  4.6192513877966000e-03  5.6045036550753503e-04  1.1146757207874895e-03  1.4967942067158721e-03  1.7416092863494588e-05  5.1013289977085341e-05  -1.4180568807674654e-04  9.2850276113632085e-04  7.7407033120079653e-03  -2.1711592020865928e-04  4.3256501999226656e-03  1.8073921027549284e-03  2.3832085158117484e-02  -2.2651748291210175e-04  3.3526013731077628e-03  -1.3409518108121519e-04  2.0172502624328285e-02  4.0613582059061874e-04  2.3178981920688208e-02  -1.0441105364225562e-04  -4.0798105598358472e-06  5.3258826285864499e-03  -3.0208161764713474e-05  1.6244626110143861e-03  7.8405012781620901e-04  -1.1504873466527045e-05  9.1109018528177758e-04  -4.7702634666006475e-05  5.8167276396921194e-03  -6.7984519920490780e-05  5.8445953850784198e-03  4.3140210560700658e-02  2.1078563545035429e-04  2.8174900635507958e-04  5.2554557149728448e-04  6.7921134684097823e-04  2.4942787634272975e-03  3.9927010081582285e-06  -7.3041863354101837e-06  -6.7358823618171234e-06  5.2131188620460974e-06  -8.3090640367792476e-06  1.2330496193409815e-05  8.5300710935562820e-04  2.1736731582171459e-04  2.4856920574170306e-03  -2.2672243703323041e-05  3.9125729266700022e-05  -2.2340605723356733e-05  2.1521588934066019e-04  4.7523600329808216e-04  -2.2089887862888833e-05  -1.2177613165053649e-05  -4.7723527426041715e-05  -3.3636079941874925e-05  -6.2747200587412282e-05  -1.9729539033229280e-04  6.5886335218335307e-05  4.2026650157202212e-05  3.2991994188721728e-04  -6.9095085190688612e-05  1.1826423902479127e-04  3.0010547516028856e-04  -1.9346745814578292e-05  -3.8386212651991964e-05  -9.4403735971464582e-05  -5.8209782980078822e-05  -3.5273866217679629e-05  -3.3317570297623134e-06  -2.3344337511481767e-05  -7.5164130461791246e-05  -4.4762359250964564e-04  4.6398385906118939e-03  1.2582927346757929e-02  3.3152005896545950e-03  1.9449418690893408e-02  3.0300706269892563e-02  1.4578276779031766e-02  4.6942865096169739e-02  5.4176217274114820e-02  3.0565196316313631e-02  3.7546199800127793e-02  2.6748588290849161e-02  3.8240318949444692e-02  1.3040850280041913e-02  4.3105749961375034e-03  1.4781114045238566e-02  2.9936689225028030e-03  2.2225527697704809e-03  -2.5160204020084831e-04  1.1701234352614930e-03  4.0646243984142731e-03  1.9954800532530318e-03  9.4001060772698555e-03  2.3302274630770069e-02  9.3529868127824479e-03  1.1195544982575314e-02  1.2661633071247866e-03  -1.1062615228496430e-03  6.9941479181851937e-03  2.6122347544100285e-03  1.1607137874689924e-03  1.9552736721549710e-03  4.5834949311700755e-03  1.8465229280149483e-02  1.3497327368676941e-02  3.0170166565766845e-02  6.0783046774098883e-03  1.0958401523000334e-02  3.4857975107301020e-03  1.4044964876552849e-03  4.3640024673699031e-04  -4.2474796956488726e-04  -1.1374460385595516e-04  -1.3631274551202817e-04  -1.4221997614986487e-04  -1.0204092788957459e-04  8.6421165696876553e-05  1.1555311123596132e-02  2.7071613518140714e-03  5.5836423881579422e-03  5.4522554266748786e-04  1.7656317623539054e-03  6.6903258823993762e-04  3.3835895914120506e-02  -1.4581382110608136e-04  -1.4509961773171191e-04  -2.1971535080655887e-04  -1.0303752023018017e-04  -9.2206062029520752e-05  3.8632650914341509e-05  5.5280267725514864e-03  4.0561395547774009e-04  2.1842856555114596e-03  1.9477886187765827e+00  5.4482442525890162e-01  5.4702766641207812e-01  5.3487940472867401e-01  5.4541482777449135e-01  8.0029102097002258e-01  8.2833706607095092e-01  7.9877482956228762e-01  8.1934878833548674e-01  7.7243000376695972e-02  8.3805448721639225e-02  7.9380655281827972e-02  7.2872943377110685e-02  2.2797350151017773e-01  2.2421741073524989e-01  2.0492609896474545e-01  2.2877666061042509e-01  2.1588750484168662e-01  2.1210601320765443e-01  2.1093432169746035e-01  2.2434168876629557e-01  2.2863503852535376e+00  2.2936378860869309e+00  2.2636845765413263e+00  2.1422841164523336e+00  1.8518540402398940e+00  1.8905377025705334e+00  1.8871193262922825e+00  1.8478530806248683e+00  1.7676962395518542e-01  1.6724540707343502e-01  1.7502509764773125e-01  1.6355269518729745e-01  9.1471036143675977e-01  9.4097835632739102e-01  9.2290242296636482e-01  9.1995669238994959e-01  5.0355627528863495e-02  5.1810845193083307e-02  5.0600985104272127e-02  5.4914618414092037e-02  5.0007640261789263e-02  5.2910540243457094e-02  5.1740434093235234e-02  4.5909857301283476e-02  9.2432473509812541e-03  8.7252852318249769e-03  1.0273222590123678e-02  8.6386331249336465e-03  1.3732942785780627e-03  4.3474102306247263e-03  4.3977231701261398e-03  3.4655476791619587e-03  1.1729297810661528e-03  4.2744363790109558e-03  1.7460243914697476e-03  4.9651399989439245e-03  4.5878205062504689e-03  3.6733009000729502e-03  1.3600840032817630e-03  3.9530157125025221e-03  1.1188753115825237e-02  2.5398174380110716e-02  2.7073070936352348e-02  5.4326318941906648e-02  8.4644428970977251e-02  1.0775569901168083e-01  7.4772379796886779e-02  7.2408268017469510e-02  2.0388249707231859e-01  8.1996595332380420e-02  5.5248982745972536e-02  2.1736850145112266e-01  2.3706235635901803e-02  1.1852862905112834e-02  1.1921296459188249e-01  2.6392441146162446e-02  2.4339911331470787e-02  1.1163645985111898e-02  2.5615773015915503e-02  8.2855171249116927e-02  5.6560315680890198e-02  1.1275177937463995e-01  7.9887651741863075e-02  7.6412457119675606e-02  2.2088838114906834e-01  5.3901834044910051e-02  8.8268627072164194e-02  2.0406777398950493e-01  1.0982758063918347e-02  2.4144532314682325e-02  1.1153474499731503e-01  2.4665547549816924e-02  1.0833467796217001e-02  2.6500787913630135e-02  2.3830841633569903e-02  5.9629279355117949e-02  8.6663326978084917e-02  1.2058982824314397e-01  8.0027803757564853e-02  7.9036036145632177e-02  2.1035251554684672e-01  8.8262137792549294e-02  5.3798332502070820e-02  2.1665335794391766e-01  2.1952925696500127e-02  9.6703432272024301e-03  1.0909516755119197e-01  2.1798096113171728e-02  2.3798751312626352e-02  9.6779936668103805e-03  2.5827068116099795e-02  8.5058905855386654e-02  5.7089747786715904e-02  1.1690517950508804e-01  7.5815329717976762e-02  7.4596161144173195e-02  2.1949871011808877e-01  5.6890028626120068e-02  9.5630882011615570e-02  2.0802733103129747e-01  1.0437422514957436e-02  2.4641687847673337e-02  1.1257707518149858e-01  2.2770122314424414e-02  2.5278183844264914e+00  2.2262381470246684e+00  2.5047249576240311e+00  2.2069137793677038e+00  2.4289653203785964e+00  2.2018745060696645e+00  2.4034692180330919e+00  2.3860894405120381e+00  2.2443648730502823e+00  2.1856298070383988e+00  2.2696122087645447e+00  2.1812058490176378e+00  2.2589486687673928e+00  2.1889682088076601e+00  2.2373171542954013e+00  2.1118909618034363e+00  6.3006750911382789e-02  1.9212036943129260e-01  2.2051086857992380e-01  1.9624209861679395e-01  6.4985991521948339e-02  8.2968811833721967e-01  1.2008986174236862e+00  4.0571956682214094e-01  7.6223497887038127e-01  4.7712073583339504e-01  3.8011511649053897e-01  1.3658360402597964e+00  1.5803907508618320e+00  1.9560570045797299e-01  7.1114027980488756e-02  2.0924400290064066e-01  6.6604492354827544e-02  2.0271072116507127e-01  7.8319759020080570e-01  4.8945067380023849e-01  4.0273116832261552e-01  8.0148201368989180e-01  1.1700571492355274e+00  4.0258024405157533e-01  1.3586528611794875e+00  1.5902557023379778e+00  1.9128172557766451e-01  6.5506260212377612e-02  2.0586258734151025e-01  5.9571863759890223e-02  1.8234093475648028e-01  7.8014471850295219e-01  4.7688128813836045e-01  3.8701965346706729e-01  8.6369044373139348e-01  1.1908907135242122e+00  4.0715274579874838e-01  1.3683743847464442e+00  1.5532610806850546e+00  6.6547568493794271e-02  1.9531962728431840e-01  2.1777799520439267e-01  1.9382172359525435e-01  6.5468071038669640e-02  8.3001927821413091e-01  1.1690700578679185e+00  3.9953842372586656e-01  7.6434221188436058e-01  4.7048327268202716e-01  3.8250529377138331e-01  1.3687392825625815e+00  1.6114906657688606e+00  1.3349785063826214e+00  4.9153366860144015e-01  3.9099271273817049e-01  4.8332399413617821e-01  9.1423427593616025e-01  1.5722117733476813e+00  3.8730792203324382e-01  4.7242303369422312e-01  9.2951051863360923e-01  1.3792429458867779e+00  4.8897704627438565e-01  1.5576323023361998e+00  1.3259622324019829e+00  4.8963731831740637e-01  3.9681739752899803e-01  4.7738208848194191e-01  8.9740170923326779e-01  1.5181352888849451e+00  3.9286519503581130e-01  4.8734981671805910e-01  9.1604164675458011e-01  1.3642531067191210e+00  4.9207947204771130e-01  1.5418416418222660e+00  2.7898797317911991e-02  2.6880433564388413e-02  2.8554493433156410e-02  2.4908707359442582e-02  5.4886446589163442e-03  6.4082933407904885e-03  3.6813876456557085e-03  -1.4165558945534589e-04  1.9441734242229902e-02  8.8259825469216044e-04  2.9337560512430827e-03  5.0955267514487092e-04  1.8611746290667600e-02  2.3520369510870046e-04  1.3663913530257695e-02  7.0917369785886185e-04  4.6224839891590402e-05  -3.3511841482143461e-04  8.6964211823548042e-03  -8.2463768884215045e-05  9.9273820079431819e-04  4.3625786122144150e-04  1.1273162327498030e-05  8.5838489578754864e-04  6.1527810586916570e-03  -1.8197010922559605e-05  8.3810569491176614e-05  3.9954344618308019e-03  3.7873465991886672e-02  -1.8553494927186248e-04  2.7914885856036051e-03  5.1370772326655143e-04  3.1746064918159703e-04  2.2995665924043750e-03  -1.8912172609116193e-05  -3.9466097698757404e-06  -1.8655488904321907e-05  6.5298989396431412e-04  1.5976311230961034e-03  3.5060762999351874e-04  5.6547084110263761e-06  -5.1392847137122660e-07  7.6500150674301565e-07  -1.3376151032555084e-04  -4.7980557263863470e-05  -1.3180862668661509e-04  -4.0237858581379320e-05  -1.3082741476074935e-04  1.3036353577101506e-02  4.6168305082114067e-03  3.3054721083821429e-03  3.7950496035528275e-02  2.6635817633025645e-02  1.2623128837346682e-02  5.1061667781081115e-02  5.0659447417420712e-02  2.6468941549798387e-02  1.9132392982086310e-02  3.6633838942185838e-02  3.2654166362966121e-02  3.7814991278910439e-03  1.0605829449468303e-02  1.1504665596319580e-02  1.2399743661809749e-03  -1.9561419468014137e-05  -2.5110614640532476e-05  -6.5379434164211593e-05  -9.2864429109560568e-06  -1.6883211804514500e-04  3.3603808876761534e-05  -1.7754137767291182e-04  -1.2102940330514767e-04  -3.2229175511869256e-04  1.0807730967262439e-04  9.3749460382735528e-05  3.4745792642266137e-04  5.1088597206058385e-05  1.7858261841598240e-05  2.3704269233537027e-04  4.0453710348141840e-05  -6.8012469965550402e-05  -1.3902410175358198e-04  3.4629844121120208e-05  -6.9227285255725585e-06  9.9363996084729771e-05  1.1050706684220113e-02  2.6754078029016148e-02  5.1973591610152900e-03  1.5391754724690673e-02  8.2935174665415487e-03  6.4614610853760263e-04  2.1729660968843427e-03  3.0819403587301953e-03  4.0562079783898449e-03  1.9419668169905831e-03  6.9458946956931673e-03  1.0960362079159949e-03  3.8873115334774413e-04  2.2735815237038244e-03  1.5884858608427067e-03  2.7627796596370918e-03  1.2523377207014951e-03  7.8152882559093077e-03  1.6195308961994143e-02  9.7750490522658991e-03  8.7103512914184517e-03  3.0880229972694352e-03  2.4430398709544151e-03  1.1644337508795581e-02  6.2948517779258363e-03  1.7142885401809297e-03  6.2370599266573488e-04  2.2117165600419182e-04  7.4596223491627260e-04  3.7835233503361699e-04  -3.4666737679812156e-05  -1.8289089747044199e-04  -1.5047028549673906e-04  3.0727788548717824e-02  2.5831448298085945e-02  1.9352104691593554e-04  1.1739109298728834e-03  3.1127758368204618e-03  7.9826900693502709e-03  2.9838755806191946e-03  1.5361253920269085e-03  7.8514380878486533e-04  7.3923395804202717e-04  1.2966212392825414e-04  1.2600755723175746e-04  4.1303491496803607e-04  1.4950572735621327e-02  1.5983582081191643e-03  1.2262685515623982e-03  1.0397792453359662e-03  1.6872309834037127e-03  7.1865833073848809e-04  -1.0261562249819223e-04  1.0249217586796346e-03  7.4255544857044749e-04  2.5350454089303200e-05  -6.9648668996320195e-05  1.3645717438492483e-04  2.2135010566605960e-04  1.0408317621680059e-04  3.7065511482539963e-04  3.1858837091192527e-04  8.6586694197970430e-05  8.5412607780657293e-05  -9.0461428741908797e-06  5.5470109745286468e-04  -1.6784873627363845e-04  1.1827008587313812e-02  1.0570202534263100e-02  8.0084908229330100e-03  2.9800911464245685e-03  5.7688846136092608e-03  9.2721446082277836e-03  5.1851807353701738e-03  8.3629807086459552e-03  -3.0155686096421801e-05  -4.0577710955370391e-04  6.5409487730371874e-05  1.3870872489034781e-04  3.2167322212378474e-03  1.6699695422811404e-03  2.2831997048971832e-03  1.2381098602084095e-03  -1.9813138380448382e-04  -1.0400580699136604e-04  6.9813973035602278e-05  -9.7176467638066873e-06  -4.3352379514109403e-05  8.5678188196236727e-05  1.1978479562568333e-04  2.1564421097051985e-05  -1.7257491433474624e-05  -5.8117344352226683e-06  2.7526968735796601e-06  -4.8825362397806053e-06  1.0191329812814464e-06  4.9355762514324511e-06  -2.9167238609444973e-06