<?xml version="1.0"?>
<VTKFile type="UnstructuredGrid"  version="0.1"  >
<UnstructuredGrid>
<Piece  NumberOfPoints="9261" NumberOfCells="48000">
<Points>
<DataArray  type="Float64"  NumberOfComponents="3"  format="ascii">-2 -2 -2  -1.8 -2 -2  -1.6 -2 -2  -1.4 -2 -2  -1.2 -2 -2  -1 -2 -2  -0.8 -2 -2  -0.6000000000000001 -2 -2  -0.3999999999999999 -2 -2  -0.2 -2 -2  0 -2 -2  0.2000000000000002 -2 -2  0.3999999999999999 -2 -2  0.6000000000000001 -2 -2  0.7999999999999998 -2 -2  1 -2 -2  1.2 -2 -2  1.4 -2 -2  1.6 -2 -2  1.8 -2 -2  2 -2 -2  -2 -1.8 -2  -1.8 -1.8 -2  -1.6 -1.8 -2  -1.4 -1.8 -2  -1.2 -1.8 -2  -1 -1.8 -2  -0.8 -1.8 -2  -0.6000000000000001 -1.8 -2  -0.3999999999999999 -1.8 -2  -0.2 -1.8 -2  0 -1.8 -2  0.2000000000000002 -1.8 -2  0.3999999999999999 -1.8 -2  0.6000000000000001 -1.8 -2  0.7999999999999998 -1.8 -2  1 -1.8 -2  1.2 -1.8 -2  1.4 -1.8 -2  1.6 -1.8 -2  1.8 -1.8 -2  2 -1.8 -2  -2 -1.6 -2  -1.8 -1.6 -2  -1.6 -1.6 -2  -1.4 -1.6 -2  -1.2 -1.6 -2  -1 -1.6 -2  -0.8 -1.6 -2  -0.6000000000000001 -1.6 -2  -0.3999999999999999 -1.6 -2  -0.2 -1.6 -2  0 -1.6 -2  0.2000000000000002 -1.6 -2  0.3999999999999999 -1.6 -2  0.6000000000000001 -1.6 -2  0.7999999999999998 -1.6 -2  1 -1.6 -2  1.2 -1.6 -2  1.4 -1.6 -2  1.6 -1.6 -2  1.8 -1.6 -2  2 -1.6 -2  -2 -1.4 -2  -1.8 -1.4 -2  -1.6 -1.4 -2  -1.4 -1.4 -2  -1.2 -1.4 -2  -1 -1.4 -2  -0.8 -1.4 -2  -0.6000000000000001 -1.4 -2  -0.3999999999999999 -1.4 -2  -0.2 -1.4 -2  0 -1.4 -2  0.2000000000000002 -1.4 -2  0.3999999999999999 -1.4 -2  0.6000000000000001 -1.4 -2  0.7999999999999998 -1.4 -2  1 -1.4 -2  1.2 -1.4 -2  1.4 -1.4 -2  1.6 -1.4 -2  1.8 -1.4 -2  2 -1.4 -2  -2 -1.2 -2  -1.8 -1.2 -2  -1.6 -1.2 -2  -1.4 -1.2 -2  -1.2 -1.2 -2  -1 -1.2 -2  -0.8 -1.2 -2  -0.6000000000000001 -1.2 -2  -0.3999999999999999 -1.2 -2  -0.2 -1.2 -2  0 -1.2 -2  0.2000000000000002 -1.2 -2  0.3999999999999999 -1.2 -2  0.6000000000000001 -1.2 -2  0.7999999999999998 -1.2 -2  1 -1.2 -2  1.2 -1.2 -2  1.4 -1.2 -2  1.6 -1.2 -2  1.8 -1.2 -2  2 -1.2 -2  -2 -1 -2  -1.8 -1 -2  -1.6 -1 -2  -1.4 -1 -2  -1.2 -1 -2  -1 -1 -2  -0.8 -1 -2  -0.6000000000000001 -1 -2  -0.3999999999999999 -1 -2  -0.2 -1 -2  0 -1 -2  0.2000000000000002 -1 -2  0.3999999999999999 -1 -2  0.6000000000000001 -1 -2  0.7999999999999998 -1 -2  1 -1 -2  1.2 -1 -2  1.4 -1 -2  1.6 -1 -2  1.8 -1 -2  2 -1 -2  -2 -0.8 -2  -1.8 -0.8 -2  -1.6 -0.8 -2  -1.4 -0.8 -2  -1.2 -0.8 -2  -1 -0.8 -2  -0.8 -0.8 -2  -0.6000000000000001 -0.8 -2  -0.3999999999999999 -0.8 -2  -0.2 -0.8 -2  0 -0.8 -2  0.2000000000000002 -0.8 -2  0.3999999999999999 -0.8 -2  0.6000000000000001 -0.8 -2  0.7999999999999998 -0.8 -2  1 -0.8 -2  1.2 -0.8 -2  1.4 -0.8 -2  1.6 -0.8 -2  1.8 -0.8 -2  2 -0.8 -2  -2 -0.6000000000000001 -2  -1.8 -0.6000000000000001 -2  -1.6 -0.6000000000000001 -2  -1.4 -0.6000000000000001 -2  -1.2 -0.6000000000000001 -2  -1 -0.6000000000000001 -2  -0.8 -0.6000000000000001 -2  -0.6000000000000001 -0.6000000000000001 -2  -0.3999999999999999 -0.6000000000000001 -2  -0.2 -0.6000000000000001 -2  0 -0.6000000000000001 -2  0.2000000000000002 -0.6000000000000001 -2  0.3999999999999999 -0.6000000000000001 -2  0.6000000000000001 -0.6000000000000001 -2  0.7999999999999998 -0.6000000000000001 -2  1 -0.6000000000000001 -2  1.2 -0.6000000000000001 -2  1.4 -0.6000000000000001 -2  1.6 -0.6000000000000001 -2  1.8 -0.6000000000000001 -2  2 -0.6000000000000001 -2  -2 -0.3999999999999999 -2  -1.8 -0.3999999999999999 -2  -1.6 -0.3999999999999999 -2  -1.4 -0.3999999999999999 -2  -1.2 -0.3999999999999999 -2  -1 -0.3999999999999999 -2  -0.8 -0.3999999999999999 -2  -0.6000000000000001 -0.3999999999999999 -2  -0.3999999999999999 -0.3999999999999999 -2  -0.2 -0.3999999999999999 -2  0 -0.3999999999999999 -2  0.2000000000000002 -0.3999999999999999 -2  0.3999999999999999 -0.3999999999999999 -2  0.6000000000000001 -0.3999999999999999 -2  0.7999999999999998 -0.3999999999999999 -2  1 -0.3999999999999999 -2  1.2 -0.3999999999999999 -2  1.4 -0.3999999999999999 -2  1.6 -0.3999999999999999 -2  1.8 -0.3999999999999999 -2  2 -0.3999999999999999 -2  -2 -0.2 -2  -1.8 -0.2 -2  -1.6 -0.2 -2  -1.4 -0.2 -2  -1.2 -0.2 -2  -1 -0.2 -2  -0.8 -0.2 -2  -0.6000000000000001 -0.2 -2  -0.3999999999999999 -0.2 -2  -0.2 -0.2 -2  0 -0.2 -2  0.2000000000000002 -0.2 -2  0.3999999999999999 -0.2 -2  0.6000000000000001 -0.2 -2  0.7999999999999998 -0.2 -2  1 -0.2 -2  1.2 -0.2 -2  1.4 -0.2 -2  1.6 -0.2 -2  1.8 -0.2 -2  2 -0.2 -2  -2 0 -2  -1.8 0 -2  -1.6 0 -2  -1.4 0 -2  -1.2 0 -2  -1 0 -2  -0.8 0 -2  -0.6000000000000001 0 -2  -0.3999999999999999 0 -2  -0.2 0 -2  0 0 -2  0.2000000000000002 0 -2  0.3999999999999999 0 -2  0.6000000000000001 0 -2  0.7999999999999998 0 -2  1 0 -2  1.2 0 -2  1.4 0 -2  1.6 0 -2  1.8 0 -2  2 0 -2  -2 0.2000000000000002 -2  -1.8 0.2000000000000002 -2  -1.6 0.2000000000000002 -2  -1.4 0.2000000000000002 -2  -1.2 0.2000000000000002 -2  -1 0.2000000000000002 -2  -0.8 0.2000000000000002 -2  -0.6000000000000001 0.2000000000000002 -2  -0.3999999999999999 0.2000000000000002 -2  -0.2 0.2000000000000002 -2  0 0.2000000000000002 -2  0.2000000000000002 0.2000000000000002 -2  0.3999999999999999 0.2000000000000002 -2  0.6000000000000001 0.2000000000000002 -2  0.7999999999999998 0.2000000000000002 -2  1 0.2000000000000002 -2  1.2 0.2000000000000002 -2  1.4 0.2000000000000002 -2  1.6 0.2000000000000002 -2  1.8 0.2000000000000002 -2  2 0.2000000000000002 -2  -2 0.3999999999999999 -2  -1.8 0.3999999999999999 -2  -1.6 0.3999999999999999 -2  -1.4 0.3999999999999999 -2  -1.2 0.3999999999999999 -2  -1 0.3999999999999999 -2  -0.8 0.3999999999999999 -2  -0.6000000000000001 0.3999999999999999 -2  -0.3999999999999999 0.3999999999999999 -2  -0.2 0.3999999999999999 -2  0 0.3999999999999999 -2  0.2000000000000002 0.3999999999999999 -2  0.3999999999999999 0.3999999999999999 -2  0.6000000000000001 0.3999999999999999 -2  0.7999999999999998 0.3999999999999999 -2  1 0.3999999999999999 -2  1.2 0.3999999999999999 -2  1.4 0.3999999999999999 -2  1.6 0.3999999999999999 -2  1.8 0.3999999999999999 -2  2 0.3999999999999999 -2  -2 0.6000000000000001 -2  -1.8 0.6000000000000001 -2  -1.6 0.6000000000000001 -2  -1.4 0.6000000000000001 -2  -1.2 0.6000000000000001 -2  -1 0.6000000000000001 -2  -0.8 0.6000000000000001 -2  -0.6000000000000001 0.6000000000000001 -2  -0.3999999999999999 0.6000000000000001 -2  -0.2 0.6000000000000001 -2  0 0.6000000000000001 -2  0.2000000000000002 0.6000000000000001 -2  0.3999999999999999 0.6000000000000001 -2  0.6000000000000001 0.6000000000000001 -2  0.7999999999999998 0.6000000000000001 -2  1 0.6000000000000001 -2  1.2 0.6000000000000001 -2  1.4 0.6000000000000001 -2  1.6 0.6000000000000001 -2  1.8 0.6000000000000001 -2  2 0.6000000000000001 -2  -2 0.7999999999999998 -2  -1.8 0.7999999999999998 -2  -1.6 0.7999999999999998 -2  -1.4 0.7999999999999998 -2  -1.2 0.7999999999999998 -2  -1 0.7999999999999998 -2  -0.8 0.7999999999999998 -2  -0.6000000000000001 0.7999999999999998 -2  -0.3999999999999999 0.7999999999999998 -2  -0.2 0.7999999999999998 -2  0 0.7999999999999998 -2  0.2000000000000002 0.7999999999999998 -2  0.3999999999999999 0.7999999999999998 -2  0.6000000000000001 0.7999999999999998 -2  0.7999999999999998 0.7999999999999998 -2  1 0.7999999999999998 -2  1.2 0.7999999999999998 -2  1.4 0.7999999999999998 -2  1.6 0.7999999999999998 -2  1.8 0.7999999999999998 -2  2 0.7999999999999998 -2  -2 1 -2  -1.8 1 -2  -1.6 1 -2  -1.4 1 -2  -1.2 1 -2  -1 1 -2  -0.8 1 -2  -0.6000000000000001 1 -2  -0.3999999999999999 1 -2  -0.2 1 -2  0 1 -2  0.2000000000000002 1 -2  0.3999999999999999 1 -2  0.6000000000000001 1 -2  0.7999999999999998 1 -2  1 1 -2  1.2 1 -2  1.4 1 -2  1.6 1 -2  1.8 1 -2  2 1 -2  -2 1.2 -2  -1.8 1.2 -2  -1.6 1.2 -2  -1.4 1.2 -2  -1.2 1.2 -2  -1 1.2 -2  -0.8 1.2 -2  -0.6000000000000001 1.2 -2  -0.3999999999999999 1.2 -2  -0.2 1.2 -2  0 1.2 -2  0.2000000000000002 1.2 -2  0.3999999999999999 1.2 -2  0.6000000000000001 1.2 -2  0.7999999999999998 1.2 -2  1 1.2 -2  1.2 1.2 -2  1.4 1.2 -2  1.6 1.2 -2  1.8 1.2 -2  2 1.2 -2  -2 1.4 -2  -1.8 1.4 -2  -1.6 1.4 -2  -1.4 1.4 -2  -1.2 1.4 -2  -1 1.4 -2  -0.8 1.4 -2  -0.6000000000000001 1.4 -2  -0.3999999999999999 1.4 -2  -0.2 1.4 -2  0 1.4 -2  0.2000000000000002 1.4 -2  0.3999999999999999 1.4 -2  0.6000000000000001 1.4 -2  0.7999999999999998 1.4 -2  1 1.4 -2  1.2 1.4 -2  1.4 1.4 -2  1.6 1.4 -2  1.8 1.4 -2  2 1.4 -2  -2 1.6 -2  -1.8 1.6 -2  -1.6 1.6 -2  -1.4 1.6 -2  -1.2 1.6 -2  -1 1.6 -2  -0.8 1.6 -2  -0.6000000000000001 1.6 -2  -0.3999999999999999 1.6 -2  -0.2 1.6 -2  0 1.6 -2  0.2000000000000002 1.6 -2  0.3999999999999999 1.6 -2  0.6000000000000001 1.6 -2  0.7999999999999998 1.6 -2  1 1.6 -2  1.2 1.6 -2  1.4 1.6 -2  1.6 1.6 -2  1.8 1.6 -2  2 1.6 -2  -2 1.8 -2  -1.8 1.8 -2  -1.6 1.8 -2  -1.4 1.8 -2  -1.2 1.8 -2  -1 1.8 -2  -0.8 1.8 -2  -0.6000000000000001 1.8 -2  -0.3999999999999999 1.8 -2  -0.2 1.8 -2  0 1.8 -2  0.2000000000000002 1.8 -2  0.3999999999999999 1.8 -2  0.6000000000000001 1.8 -2  0.7999999999999998 1.8 -2  1 1.8 -2  1.2 1.8 -2  1.4 1.8 -2  1.6 1.8 -2  1.8 1.8 -2  2 1.8 -2  -2 2 -2  -1.8 2 -2  -1.6 2 -2  -1.4 2 -2  -1.2 2 -2  -1 2 -2  -0.8 2 -2  -0.6000000000000001 2 -2  -0.3999999999999999 2 -2  -0.2 2 -2  0 2 -2  0.2000000000000002 2 -2  0.3999999999999999 2 -2  0.6000000000000001 2 -2  0.7999999999999998 2 -2  1 2 -2  1.2 2 -2  1.4 2 -2  1.6 2 -2  1.8 2 -2  2 2 -2  -2 -2 -1.8  -1.8 -2 -1.8  -1.6 -2 -1.8  -1.4 -2 -1.8  -1.2 -2 -1.8  -1 -2 -1.8  -0.8 -2 -1.8  -0.6000000000000001 -2 -1.8  -0.3999999999999999 -2 -1.8  -0.2 -2 -1.8  0 -2 -1.8  0.2000000000000002 -2 -1.8  0.3999999999999999 -2 -1.8  0.6000000000000001 -2 -1.8  0.7999999999999998 -2 -1.8  1 -2 -1.8  1.2 -2 -1.8  1.4 -2 -1.8  1.6 -2 -1.8  1.8 -2 -1.8  2 -2 -1.8  -2 -1.8 -1.8  -1.8 -1.8 -1.8  -1.6 -1.8 -1.8  -1.4 -1.8 -1.8  -1.2 -1.8 -1.8  -1 -1.8 -1.8  -0.8 -1.8 -1.8  -0.6000000000000001 -1.8 -1.8  -0.3999999999999999 -1.8 -1.8  -0.2 -1.8 -1.8  0 -1.8 -1.8  0.2000000000000002 -1.8 -1.8  0.3999999999999999 -1.8 -1.8  0.6000000000000001 -1.8 -1.8  0.7999999999999998 -1.8 -1.8  1 -1.8 -1.8  1.2 -1.8 -1.
[...]
<PointData  Scalars="uA"> 
<DataArray  type="Float64"  Name="uA"  format="ascii">3.5137861126272279e-04  3.6003759707770180e-04  3.6594897143388001e-04  3.7034175302729790e-04  3.7376909750595956e-04  3.7648753718718303e-04  3.7864882043322443e-04  3.8037106236639304e-04  3.8176317468770633e-04  3.8293282488926545e-04  3.8398879174805800e-04  3.8504149473455760e-04  3.8620294823938549e-04  3.8758660348322892e-04  3.8930765391634900e-04  3.9148545589373992e-04  3.9425284625499110e-04  3.9778604617271194e-04  4.0239471436842583e-04  4.0878044348220661e-04  4.1866622535998132e-04  3.6003759707770180e-04  3.7183332418713223e-04  3.7821759025370965e-04  3.8269626567429660e-04  3.8615391023901678e-04  3.8889362897423437e-04  3.9107308422618487e-04  3.9281124976328613e-04  3.9421764631635383e-04  3.9540073610198331e-04  3.9647019502892444e-04  3.9753734711976457e-04  3.9871505083637868e-04  4.0011748325093457e-04  4.0186037520281628e-04  4.0406336106282598e-04  4.0685964294655605e-04  4.1043026824207741e-04  4.1512865140844722e-04  4.2198325047032597e-04  4.3501351973440324e-04  3.6594897143387995e-04  3.7821759025370960e-04  3.8479303090666435e-04  3.8933543331681633e-04  3.9281772114736150e-04  3.9557046715162173e-04  3.9775903450057110e-04  3.9950470599244508e-04  4.0091791925824259e-04  4.0210769209318275e-04  4.0318414178502915e-04  4.0425896748490112e-04  4.0544534105490382e-04  4.0685770181060935e-04  4.0861205172331561e-04  4.1082854343481393e-04  4.1364204508890102e-04  4.1723971551749873e-04  4.2199620462690939e-04  4.2899623988137687e-04  4.4222520218634072e-04  3.7034175302729790e-04  3.8269626567429650e-04  3.8933543331681633e-04  3.9391004608353166e-04  3.9740836918849442e-04  4.0017019681751615e-04  4.0236492870693243e-04  4.0411553934768091e-04  4.0553324881789594e-04  4.0672751286510147e-04  4.0780874014705666e-04  4.0888883811171793e-04  4.1008112762449958e-04  4.1150016593268662e-04  4.1326211337055477e-04  4.1548750726368513e-04  4.1831227737808003e-04  4.2192623690647831e-04  4.2670907713905079e-04  4.3374679048074704e-04  4.4697498735000486e-04  3.7376909750595950e-04  3.8615391023901668e-04  3.9281772114736139e-04  3.9740836918849437e-04  4.0091658041694494e-04  4.0368483304570010e-04  4.0588422032652495e-04  4.0763865219595901e-04  4.0905987225242304e-04  4.1025765489466668e-04  4.1134261810188530e-04  4.1242680776550121e-04  4.1362363095124536e-04  4.1504770168271794e-04  4.1681525480240841e-04  4.1904701319696465e-04  4.2187935372953894e-04  4.2550292024489322e-04  4.3029822501926642e-04  4.3734976033311636e-04  4.5058537683371152e-04  3.7648753718718292e-04  3.8889362897423426e-04  3.9557046715162157e-04  4.0017019681751605e-04  4.0368483304570004e-04  4.0645779479700370e-04  4.0866087549857179e-04  4.1041846132021761e-04  4.1184261466125841e-04  4.1304332956265422e-04  4.1413137741845351e-04  4.1521890609070883e-04  4.1641938172957575e-04  4.1784744741677854e-04  4.1961936237941167e-04  4.2185591085833977e-04  4.2469361625059447e-04  4.2832336665805178e-04  4.3312593819207841e-04  4.4018629551847462e-04  4.5343679278729457e-04  3.7864882043322433e-04  3.9107308422618476e-04  3.9775903450057099e-04  4.0236492870693237e-04  4.0588422032652489e-04  4.0866087549857168e-04  4.1086702892417001e-04  4.1262732023715525e-04  4.1405400806514975e-04  4.1525724012276297e-04  4.1634790535721689e-04  4.1743823453875187e-04  4.1864174321442640e-04  4.2007309573461184e-04  4.2184855734975874e-04  4.2408892407000366e-04  4.2693076340622632e-04  4.3056507783197675e-04  4.3537297054237195e-04  4.4244075320019254e-04  4.5570721206770624e-04  3.8037106236639298e-04  3.9281124976328603e-04  3.9950470599244497e-04  4.0411553934768080e-04  4.0763865219595896e-04  4.1041846132021750e-04  4.1262732023715520e-04  4.1439002650505720e-04  4.1581897324115659e-04  4.1702442569088759e-04  4.1811737142782455e-04  4.1921011691902117e-04  4.2041622779149276e-04  4.2185039408137288e-04  4.2362888917471813e-04  4.2587251320204764e-04  4.2871785760556784e-04  4.3235602516225271e-04  4.3716849476992841e-04  4.4424303968379123e-04  4.5752436581395812e-04  3.8176317468770627e-04  3.9421764631635383e-04  4.0091791925824259e-04  4.0553324881789589e-04  4.0905987225242299e-04  4.1184261466125835e-04  4.1405400806514969e-04  4.1581897324115665e-04  4.1725001327476570e-04  4.1845749651102658e-04  4.1955250321459170e-04  4.2064741665207397e-04  4.2185585934158910e-04  4.2329255771427193e-04  4.2507380518045328e-04  4.2732041592012166e-04  4.3016901172029221e-04  4.3381080006212974e-04  4.3862762813255554e-04  4.4570859871195410e-04  4.5900349266981053e-04  3.8293282488926540e-04  3.9540073610198331e-04  4.0210769209318269e-04  4.0672751286510142e-04  4.1025765489466663e-04  4.1304332956265417e-04  4.1525724012276291e-04  4.1702442569088759e-04  4.1845749651102669e-04  4.1966692395262428e-04  4.2076388400458904e-04  4.2186084309353463e-04  4.2307149034167651e-04  4.2451060125614173e-04  4.2629450396625997e-04  4.2854404194810704e-04  4.3139588113964004e-04  4.3504134113614282e-04  4.3986261645545831e-04  4.4694999418991874e-04  4.6025767783770528e-04  3.8398879174805794e-04  3.9647019502892438e-04  4.0318414178502909e-04  4.0780874014705655e-04  4.1134261810188519e-04  4.1413137741845335e-04  4.1634790535721684e-04  4.1811737142782450e-04  4.1955250321459170e-04  4.2076388400458914e-04  4.2186279396289977e-04  4.2296179150253302e-04  4.2417464224991745e-04  4.2561618228798026e-04  4.2740278787627676e-04  4.2965534711941267e-04  4.3251058658451809e-04  4.3615995191969258e-04  4.4098598209349216e-04  4.4808007762208997e-04  4.6140053932903802e-04  3.8504149473455750e-04  3.9753734711976441e-04  4.0425896748490101e-04  4.0888883811171777e-04  4.1242680776550100e-04  4.1521890609070862e-04  4.1743823453875177e-04  4.1921011691902106e-04  4.2064741665207391e-04  4.2186084309353463e-04  4.2296179150253308e-04  4.2406292102853784e-04  4.2527808144977234e-04  4.2672217718004124e-04  4.2851164198624690e-04  4.3076742146829991e-04  4.3362632114083777e-04  4.3727993775172398e-04  4.4211118587735861e-04  4.4921261386641321e-04  4.6254665764391295e-04  3.8620294823938533e-04  3.9871505083637857e-04  4.0544534105490371e-04  4.1008112762449942e-04  4.1362363095124520e-04  4.1641938172957553e-04  4.1864174321442629e-04  4.2041622779149265e-04  4.2185585934158905e-04  4.2307149034167646e-04  4.2417464224991756e-04  4.2527808144977245e-04  4.2649574509117500e-04  4.2794260763140906e-04  4.2973516326704798e-04  4.3199442329591579e-04  4.3485729131394603e-04  4.3851555306873892e-04  4.4335256988926403e-04  4.5046218677103538e-04  4.6381138080998073e-04  3.8758660348322876e-04  4.0011748325093446e-04  4.0685770181060919e-04  4.1150016593268646e-04  4.1504770168271777e-04  4.1784744741677827e-04  4.2007309573461167e-04  4.2185039408137271e-04  4.2329255771427176e-04  4.2451060125614168e-04  4.2561618228798026e-04  4.2672217718004129e-04  4.2794260763140906e-04  4.2939251190626896e-04  4.3118843873927477e-04  4.3345146591401343e-04  4.3631861232620427e-04  4.3998190119866120e-04  4.4482524918916224e-04  4.5194405501094954e-04  4.6531059465720144e-04  3.8930765391634884e-04  4.0186037520281611e-04  4.0861205172331539e-04  4.1326211337055455e-04  4.1681525480240819e-04  4.1961936237941140e-04  4.2184855734975847e-04  4.2362888917471796e-04  4.2507380518045322e-04  4.2629450396625991e-04  4.2740278787627671e-04  4.2851164198624695e-04  4.2973516326704798e-04  4.3118843873927477e-04  4.3298805515645496e-04  4.3525514696961400e-04  4.3812685881216673e-04  4.4179550274028959e-04  4.4664568079824500e-04  4.5377467307870328e-04  4.6716109206220384e-04  3.9148545589373976e-04  4.0406336106282582e-04  4.1082854343481371e-04  4.1548750726368492e-04  4.1904701319696438e-04  4.2185591085833950e-04  4.2408892407000344e-04  4.2587251320204742e-04  4.2732041592012150e-04  4.2854404194810704e-04  4.2965534711941267e-04  4.3076742146829991e-04  4.3199442329591584e-04  4.3345146591401354e-04  4.3525514696961406e-04  4.3752663471378716e-04  4.4040319717030067e-04  4.4407747620387399e-04  4.4893487129361723e-04  4.5607481531222512e-04  4.6948327806186588e-04  3.9425284625499099e-04  4.0685964294655583e-04  4.1364204508890075e-04  4.1831227737807982e-04  4.2187935372953867e-04  4.2469361625059409e-04  4.2693076340622605e-04  4.2871785760556768e-04  4.3016901172029210e-04  4.3139588113963998e-04  4.3251058658451809e-04  4.3362632114083772e-04  4.3485729131394614e-04  4.3631861232620438e-04  4.3812685881216678e-04  4.4040319717030072e-04  4.4328499944539006e-04  4.4696525616272359e-04  4.5183019717829503e-04  4.5898128104857305e-04  4.7241159654217585e-04  3.9778604617271177e-04  4.1043026824207719e-04  4.1723971551749846e-04  4.2192623690647804e-04  4.2550292024489289e-04  4.2832336665805145e-04  4.3056507783197648e-04  4.3235602516225250e-04  4.3381080006212963e-04  4.3504134113614271e-04  4.3615995191969258e-04  4.3727993775172398e-04  4.3851555306873908e-04  4.3998190119866126e-04  4.4179550274028965e-04  4.4407747620387399e-04  4.4696525616272359e-04  4.5065218348674263e-04  4.5552528097692096e-04  4.6268693564187791e-04  4.7613112772051317e-04  4.0239471436842567e-04  4.1512865140844700e-04  4.2199620462690917e-04  4.2670907713905052e-04  4.3029822501926615e-04  4.3312593819207814e-04  4.3537297054237179e-04  4.3716849476992825e-04  4.3862762813255544e-04  4.3986261645545820e-04  4.4098598209349211e-04  4.4211118587735861e-04  4.4335256988926408e-04  4.4482524918916224e-04  4.4664568079824505e-04  4.4893487129361729e-04  4.5183019717829503e-04  4.5552528097692096e-04  4.6040819867830323e-04  4.6758129018221361e-04  4.8101558218653672e-04  4.0878044348220639e-04  4.2198325047032581e-04  4.2899623988137671e-04  4.3374679048074682e-04  4.3734976033311604e-04  4.4018629551847440e-04  4.4244075320019237e-04  4.4424303968379107e-04  4.4570859871195394e-04  4.4694999418991857e-04  4.4808007762208997e-04  4.4921261386641321e-04  4.5046218677103538e-04  4.5194405501094954e-04  4.5377467307870334e-04  4.5607481531222517e-04  4.5898128104857310e-04  4.6268693564187791e-04  4.6758129018221361e-04  4.7477990852301419e-04  4.8824032679838303e-04  4.1866622535998110e-04  4.3501351973440302e-04  4.4222520218634051e-04  4.4697498735000465e-04  4.5058537683371125e-04  4.5343679278729435e-04  4.5570721206770608e-04  4.5752436581395802e-04  4.5900349266981042e-04  4.6025767783770518e-04  4.6140053932903802e-04  4.6254665764391295e-04  4.6381138080998073e-04  4.6531059465720144e-04  4.6716109206220390e-04  4.6948327806186588e-04  4.7241159654217585e-04  4.7613112772051323e-04  4.8101558218653677e-04  4.8824032679838303e-04  5.0308683072880066e-04  4.3214951109942596e-04  4.3761737691542612e-04  4.4278414377948690e-04  4.4713299557481344e-04  4.5068940828422245e-04  4.5356300538192769e-04  4.5586704681992943e-04  4.5771241051155111e-04  4.5921036722456227e-04  4.6047416091581929e-04  4.6161928684565072e-04  4.6276320030791477e-04  4.6402479737801404e-04  4.6552376589912257e-04  4.6737998869550527e-04  4.6971357996416276e-04  4.7264659343178501e-04  4.7630608584757950e-04  4.8081430407778724e-04  4.8617180070551771e-04  4.9156418152709967e-04  4.3761737691542607e-04  4.4310197671849298e-04  4.4833458008773419e-04  4.5270289763257735e-04  4.5626446284167211e-04  4.5914039958330034e-04  4.6144655878898574e-04  4.6329430970769368e-04  4.6479506938368342e-04  4.6606220817993157e-04  4.6721134628494628e-04  4.6836003457342444e-04  4.6962721303277981e-04  4.7113255346828707e-04  4.7299587517576376e-04  4.7533726360884286e-04  4.7827921561411393e-04  4.8195188588502082e-04  4.8649282037127671e-04  4.9196005539215424e-04  4.9761043100125379e-04  4.4278414377948685e-04  4.4833458008773413e-04  4.5362567600402477e-04  4.5802276519514741e-04  4.6159743543058667e-04  4.6448031914069008e-04  4.6679120423396506e-04  4.6864294160285386e-04  4.7014756915604252e-04  4.7141879094240123e-04  4.7257244671762387e-04  4.7372623574245117e-04  4.7499918614553538e-04  4.7651101655146863e-04  4.7838161601189487e-04  4.8073136378279862e-04  4.8368388038972244e-04  4.8737293417976541e-04  4.9194546272589811e-04  4.9747324225533321e-04  5.0317859006771015e-04  4.4713299557481339e-04  4.5270289763257729e-04  4.5802276519514736e-04  4.6243892950197405e-04  4.6602457485328248e-04  4.6891409739008121e-04  4.7122961882046962e-04  4.7308516617428612e-04  4.7459337121159156e-04  4.7586826994645544e-04  4.7702590618659924e-04  4.7818410359326796e-04  4.7946195599748173e-04  4.8097921588885381e-04  4.8285583731884303e-04  4.8521244221452395e-04  4.8817337321067889e-04  4.9187404083155981e-04  4.9646372518254991e-04  5.0201246886430342e-04  5.0771991435620317e-04  4.5068940828422234e-04  4.5626446284167201e-04  4.6159743543058661e-04  4.6602457485328243e-04  4.6961785681171638e-04  4.7251268228338047e-04  4.7483219918341614e-04  4.7669111385071657e-04  4.7820247267705234e-04  4.7948057021025402e-04  4.8064161448971033e-04  4.8180352667873176e-04  4.8308544653030808e-04  4.8460714127609354e-04  4.8648858919229156e-04  4.8885051899530050e-04  4.9181755792055716e-04  4.9552557790437119e-04  5.0012394127284070e-04  5.0568026080522193e-04  5.1138552607678830e-04  4.5356300538192758e-04  4.5914039958330023e-04  4.6448031914068992e-04  4.6891409739008110e-04  4.7251268228338037e-04  4.7541164253484393e-04  4.7773452260847869e-04  4.7959637489292968e-04  4.8111050197736753e-04  4.8239138136797500e-04  4.8355534730279984e-04  4.8472039887404914e-04  4.8600571160920610e-04  4.8753105750048845e-04  4.8941641027768835e-04  4.9178251668016975e-04  4.9475406813177651e-04  4.9846699732424276e-04  5.0307045394496711e-04  5.0863088140680858e-04  5.1433585990072830e-04  4.5586704681992938e-04  4.6144655878898564e-04  4.6679120423396496e-04  4.7122961882046951e-04  4.7483219918341597e-04  4.7773452260847863e-04  4.8006029143731198e-04  4.8192473453958134e-04  4.8344131185501066e-04  4.8472463063258350e-04  4.8589112465844536e-04  4.8705886018214975e-04  4.8834704708898406e-04  4.8987546325111929e-04  4.9176407059713914e-04  4.9413360163087306e-04  4.9710874102706600e-04  5.0082540460754169e-04  5.0543263333707289e-04  5.1099643497864902e-04  5.1670254958072030e-04  4.5771241051155106e-04  4.6329430970769363e-04  4.6864294160285381e-04  4.7308516617428602e-04  4.7669111385071646e-04  4.7959637489292957e-04  4.8192473453958118e-04  4.8379152588138137e-04  4.8531031633180133e-04  4.8659581366828654e-04  4.8776453734169638e-04  4.8893461799255113e-04  4.9022530492120922e-04  4.9175639097431400e-04  4.9364783406525680e-04  4.9602035297042785e-04  4.9899861869254203e-04  5.0271853843435362e-04  5.0732913678454782e-04  5.1289626360716798e-04  5.1860430536960578e-04  4.5921036722456216e-04  4.6479506938368337e-04  4.7014756915604252e-04  4.7459337121159151e-04  4.7820247267705223e-04  4.8111050197736742e-04  4.8344131185501060e-04  4.8531031633180144e-04  4.8683117170570506e-04  4.8811867539199266e-04  4.8928942912511441e-04  4.9046163123871449e-04  4.9175457938036872e-04  4.9328809430755724e-04  4.9518214445195435e-04  4.9755744855550896e-04  5.0053867695041491e-04  5.0426174761147142e-04  5.0887571018337131e-04  5.1444633774329600e-04  5.2015685839663104e-04  4.6047416091581924e-04  4.6606220817993152e-04  4.7141879094240118e-04  4.7586826994645538e-04  4.7948057021025397e-04  4.8239138136797489e-04  4.8472463063258339e-04  4.8659581366828649e-04  4.8811867539199272e-04  4.8940810408541833e-04  4.9058078759526842e-04  4.9175499891488522e-04  4.9305009430649315e-04  4.9458593571068913e-04  4.9648251755879380e-04  4.9886057520984574e-04  5.0184479546488807e-04  5.0557112468582819e-04  5.1018865513417170e-04  5.1576310310956161e-04  5.2147664083190153e-04  4.6161928684565067e-04  4.6721134628494628e-04  4.7257244671762382e-04  4.7702590618659918e-04  4.8064161448971022e-04  4.8355534730279973e-04  4.8589112465844526e-04  4.8776453734169633e-04  4.8928942912511441e-04  4.9058078759526842e-04  4.9175539452359139e-04  4.9293160569722388e-04  4.9422884520001445e-04  4.9576702699670309e-04  4.9766618438139526e-04  5.0004708444680035e-04  5.0303444777537447e-04  5.0676426764213679e-04  5.1138569566687789e-04  5.1696440498439115e-04  5.2268156612185826e-04  4.6276320030791467e-04  4.6836003457342433e-04  4.7372623574245111e-04  4.7818410359326785e-04  4.8180352667873160e-04  4.8472039887404898e-04  4.8705886018214959e-04  4.8893461799255113e-04  4.9046163123871449e-04  4.9175499891488522e-04  4.9293160569722388e-04  4.9410989706341070e-04  4.9540937077616459e-04  4.9694999884194785e-04  4.9885186111336521e-04  5.0123576766105326e-04  5.0422648956341290e-04  5.0796009028394363e-04  5.1258580936788746e-04  5.1816930533247596e-04  5.2389076501729295e-04  4.6402479737801388e-04  4.6962721303277970e-04  4.7499918614553522e-04  4.7946195599748157e-04  4.8308544653030791e-04  4.8600571160920588e-04  4.8834704708898384e-04  4.9022530492120911e-04  4.9175457938036861e-04  4.9305009430649315e-04  4.9422884520001456e-04  4.9540937077616469e-04  4.9671124287466097e-04  4.9825449049862170e-04  5.0015924021159185e-04  5.0254635025795023e-04  5.0554065727706921e-04  5.0927832455690972e-04  5.1390872568562280e-04  5.1949755758942098e-04  5.2522401586517714e-04  4.6552376589912236e-04  4.7113255346828691e-04  4.7651101655146847e-04  4.8097921588885365e-04  4.8460714127609338e-04  4.8753105750048818e-04  4.8987546325111907e-04  4.9175639097431378e-04  4.9328809430755703e-04  4.9458593571068902e-04  4.9576702699670309e-04  4.9694999884194796e-04  4.9825449049862170e-04  4.9980057793961132e-04  5.0170842465033000e-04  5.0409893341214643e-04  5.0709701722066627e-04  5.1083897362109271e-04  5.1547437410703239e-04  5.2106903476881780e-04  5.2680114330030513e-04  4.6737998869550500e-04  4.7299587517576355e-04  4.7838161601189460e-04  4.8285583731884276e-04  4.8648858919229124e-04  4.8941641027768813e-04  4.9176407059713882e-04  4.9364783406525658e-04  4.9518214445195413e-04  4.9648251755879359e-04  4.9766618438139526e-04  4.9885186111336521e-04  5.0015924021159185e-04  5.0170842465033000e-04  5.0361959319079354e-04  5.0601367749639854e-04  5.0901566911705216e-04  5.1276203386098102e-04  5.1740261552116619e-04  5.2300344810224896e-04  5.2874170066098073e-04  4.6971357996416254e-04  4.7533726360884265e-04  4.8073136378279835e-04  4.8521244221452374e-04  4.8885051899530017e-04  4.9178251668016953e-04  4.9413360163087273e-04  4.9602035297042764e-04  4.9755744855550885e-04  4.9886057520984563e-04  5.0004708444680035e-04  5.0123576766105326e-04  5.0254635025795034e-04  5.0409893341214654e-04  5.0601367749639854e-04  5.0841151319804597e-04  5.1141750004143579e-04  5.1516829962926583e-04  5.1981409897037525e-04  5.2542122433847161e-04  5.3116577922691563e-04  4.7264659343178479e-04  4.7827921561411371e-04  4.8368388038972217e-04  4.8817337321067862e-04  4.9181755792055684e-04  4.9475406813177607e-04  4.9710874102706578e-04  4.9899861869254181e-04  5.0053867695041469e-04  5.0184479546488796e-04  5.0303444777537447e-04  5.0422648956341290e-04  5.0554065727706932e-04  5.0709701722066638e-04  5.0901566911705216e-04  5.1141750004143579e-04  5.1442761577507928e-04  5.1818290410848974e-04  5.2283397606006632e-04  5.2844742883635188e-04  5.3419789589671395e-04  4.7630608584757928e-04  4.8195188588502061e-04  4.8737293417976514e-04  4.9187404083155949e-04  4.9552557790437087e-04  4.9846699732424243e-04  5.0082540460754147e-04  5.0271853843435340e-04  5.0426174761147120e-04  5.0557112468582808e-04  5.0676426764213679e-04  5.0796009028394363e-04  5.0927832455690983e-04  5.1083897362109282e-04  5.1276203386098102e-04  5.1516829962926583e-04  5.1818290410848985e-04  5.2194306279020031e-04  5.2660011851289850e-04  5.3222106862821957e-04  5.3797726888439622e-04  4.8081430407778702e-04  4.8649282037127649e-04  4.9194546272589789e-04  4.9646372518254958e-04  5.0012394127284037e-04  5.0307045394496679e-04  5.0543263333707267e-04  5.0732913678454760e-04  5.0887571018337120e-04  5.1018865513417159e-04  5.1138569566687789e-04 