<?xml version="1.0"?>
<VTKFile type="UnstructuredGrid"  version="0.1"  >
<UnstructuredGrid>
<Piece  NumberOfPoints="9261" NumberOfCells="48000">
<Points>
<DataArray  type="Float64"  NumberOfComponents="3"  format="ascii">-2 -2 -2  -1.8 -2 -2  -1.6 -2 -2  -1.4 -2 -2  -1.2 -2 -2  -1 -2 -2  -0.8 -2 -2  -0.6000000000000001 -2 -2  -0.3999999999999999 -2 -2  -0.2 -2 -2  0 -2 -2  0.2000000000000002 -2 -2  0.3999999999999999 -2 -2  0.6000000000000001 -2 -2  0.7999999999999998 -2 -2  1 -2 -2  1.2 -2 -2  1.4 -2 -2  1.6 -2 -2  1.8 -2 -2  2 -2 -2  -2 -1.8 -2  -1.8 -1.8 -2  -1.6 -1.8 -2  -1.4 -1.8 -2  -1.2 -1.8 -2  -1 -1.8 -2  -0.8 -1.8 -2  -0.6000000000000001 -1.8 -2  -0.3999999999999999 -1.8 -2  -0.2 -1.8 -2  0 -1.8 -2  0.2000000000000002 -1.8 -2  0.3999999999999999 -1.8 -2  0.6000000000000001 -1.8 -2  0.7999999999999998 -1.8 -2  1 -1.8 -2  1.2 -1.8 -2  1.4 -1.8 -2  1.6 -1.8 -2  1.8 -1.8 -2  2 -1.8 -2  -2 -1.6 -2  -1.8 -1.6 -2  -1.6 -1.6 -2  -1.4 -1.6 -2  -1.2 -1.6 -2  -1 -1.6 -2  -0.8 -1.6 -2  -0.6000000000000001 -1.6 -2  -0.3999999999999999 -1.6 -2  -0.2 -1.6 -2  0 -1.6 -2  0.2000000000000002 -1.6 -2  0.3999999999999999 -1.6 -2  0.6000000000000001 -1.6 -2  0.7999999999999998 -1.6 -2  1 -1.6 -2  1.2 -1.6 -2  1.4 -1.6 -2  1.6 -1.6 -2  1.8 -1.6 -2  2 -1.6 -2  -2 -1.4 -2  -1.8 -1.4 -2  -1.6 -1.4 -2  -1.4 -1.4 -2  -1.2 -1.4 -2  -1 -1.4 -2  -0.8 -1.4 -2  -0.6000000000000001 -1.4 -2  -0.3999999999999999 -1.4 -2  -0.2 -1.4 -2  0 -1.4 -2  0.2000000000000002 -1.4 -2  0.3999999999999999 -1.4 -2  0.6000000000000001 -1.4 -2  0.7999999999999998 -1.4 -2  1 -1.4 -2  1.2 -1.4 -2  1.4 -1.4 -2  1.6 -1.4 -2  1.8 -1.4 -2  2 -1.4 -2  -2 -1.2 -2  -1.8 -1.2 -2  -1.6 -1.2 -2  -1.4 -1.2 -2  -1.2 -1.2 -2  -1 -1.2 -2  -0.8 -1.2 -2  -0.6000000000000001 -1.2 -2  -0.3999999999999999 -1.2 -2  -0.2 -1.2 -2  0 -1.2 -2  0.2000000000000002 -1.2 -2  0.3999999999999999 -1.2 -2  0.6000000000000001 -1.2 -2  0.7999999999999998 -1.2 -2  1 -1.2 -2  1.2 -1.2 -2  1.4 -1.2 -2  1.6 -1.2 -2  1.8 -1.2 -2  2 -1.2 -2  -2 -1 -2  -1.8 -1 -2  -1.6 -1 -2  -1.4 -1 -2  -1.2 -1 -2  -1 -1 -2  -0.8 -1 -2  -0.6000000000000001 -1 -2  -0.3999999999999999 -1 -2  -0.2 -1 -2  0 -1 -2  0.2000000000000002 -1 -2  0.3999999999999999 -1 -2  0.6000000000000001 -1 -2  0.7999999999999998 -1 -2  1 -1 -2  1.2 -1 -2  1.4 -1 -2  1.6 -1 -2  1.8 -1 -2  2 -1 -2  -2 -0.8 -2  -1.8 -0.8 -2  -1.6 -0.8 -2  -1.4 -0.8 -2  -1.2 -0.8 -2  -1 -0.8 -2  -0.8 -0.8 -2  -0.6000000000000001 -0.8 -2  -0.3999999999999999 -0.8 -2  -0.2 -0.8 -2  0 -0.8 -2  0.2000000000000002 -0.8 -2  0.3999999999999999 -0.8 -2  0.6000000000000001 -0.8 -2  0.7999999999999998 -0.8 -2  1 -0.8 -2  1.2 -0.8 -2  1.4 -0.8 -2  1.6 -0.8 -2  1.8 -0.8 -2  2 -0.8 -2  -2 -0.6000000000000001 -2  -1.8 -0.6000000000000001 -2  -1.6 -0.6000000000000001 -2  -1.4 -0.6000000000000001 -2  -1.2 -0.6000000000000001 -2  -1 -0.6000000000000001 -2  -0.8 -0.6000000000000001 -2  -0.6000000000000001 -0.6000000000000001 -2  -0.3999999999999999 -0.6000000000000001 -2  -0.2 -0.6000000000000001 -2  0 -0.6000000000000001 -2  0.2000000000000002 -0.6000000000000001 -2  0.3999999999999999 -0.6000000000000001 -2  0.6000000000000001 -0.6000000000000001 -2  0.7999999999999998 -0.6000000000000001 -2  1 -0.6000000000000001 -2  1.2 -0.6000000000000001 -2  1.4 -0.6000000000000001 -2  1.6 -0.6000000000000001 -2  1.8 -0.6000000000000001 -2  2 -0.6000000000000001 -2  -2 -0.3999999999999999 -2  -1.8 -0.3999999999999999 -2  -1.6 -0.3999999999999999 -2  -1.4 -0.3999999999999999 -2  -1.2 -0.3999999999999999 -2  -1 -0.3999999999999999 -2  -0.8 -0.3999999999999999 -2  -0.6000000000000001 -0.3999999999999999 -2  -0.3999999999999999 -0.3999999999999999 -2  -0.2 -0.3999999999999999 -2  0 -0.3999999999999999 -2  0.2000000000000002 -0.3999999999999999 -2  0.3999999999999999 -0.3999999999999999 -2  0.6000000000000001 -0.3999999999999999 -2  0.7999999999999998 -0.3999999999999999 -2  1 -0.3999999999999999 -2  1.2 -0.3999999999999999 -2  1.4 -0.3999999999999999 -2  1.6 -0.3999999999999999 -2  1.8 -0.3999999999999999 -2  2 -0.3999999999999999 -2  -2 -0.2 -2  -1.8 -0.2 -2  -1.6 -0.2 -2  -1.4 -0.2 -2  -1.2 -0.2 -2  -1 -0.2 -2  -0.8 -0.2 -2  -0.6000000000000001 -0.2 -2  -0.3999999999999999 -0.2 -2  -0.2 -0.2 -2  0 -0.2 -2  0.2000000000000002 -0.2 -2  0.3999999999999999 -0.2 -2  0.6000000000000001 -0.2 -2  0.7999999999999998 -0.2 -2  1 -0.2 -2  1.2 -0.2 -2  1.4 -0.2 -2  1.6 -0.2 -2  1.8 -0.2 -2  2 -0.2 -2  -2 0 -2  -1.8 0 -2  -1.6 0 -2  -1.4 0 -2  -1.2 0 -2  -1 0 -2  -0.8 0 -2  -0.6000000000000001 0 -2  -0.3999999999999999 0 -2  -0.2 0 -2  0 0 -2  0.2000000000000002 0 -2  0.3999999999999999 0 -2  0.6000000000000001 0 -2  0.7999999999999998 0 -2  1 0 -2  1.2 0 -2  1.4 0 -2  1.6 0 -2  1.8 0 -2  2 0 -2  -2 0.2000000000000002 -2  -1.8 0.2000000000000002 -2  -1.6 0.2000000000000002 -2  -1.4 0.2000000000000002 -2  -1.2 0.2000000000000002 -2  -1 0.2000000000000002 -2  -0.8 0.2000000000000002 -2  -0.6000000000000001 0.2000000000000002 -2  -0.3999999999999999 0.2000000000000002 -2  -0.2 0.2000000000000002 -2  0 0.2000000000000002 -2  0.2000000000000002 0.2000000000000002 -2  0.3999999999999999 0.2000000000000002 -2  0.6000000000000001 0.2000000000000002 -2  0.7999999999999998 0.2000000000000002 -2  1 0.2000000000000002 -2  1.2 0.2000000000000002 -2  1.4 0.2000000000000002 -2  1.6 0.2000000000000002 -2  1.8 0.2000000000000002 -2  2 0.2000000000000002 -2  -2 0.3999999999999999 -2  -1.8 0.3999999999999999 -2  -1.6 0.3999999999999999 -2  -1.4 0.3999999999999999 -2  -1.2 0.3999999999999999 -2  -1 0.3999999999999999 -2  -0.8 0.3999999999999999 -2  -0.6000000000000001 0.3999999999999999 -2  -0.3999999999999999 0.3999999999999999 -2  -0.2 0.3999999999999999 -2  0 0.3999999999999999 -2  0.2000000000000002 0.3999999999999999 -2  0.3999999999999999 0.3999999999999999 -2  0.6000000000000001 0.3999999999999999 -2  0.7999999999999998 0.3999999999999999 -2  1 0.3999999999999999 -2  1.2 0.3999999999999999 -2  1.4 0.3999999999999999 -2  1.6 0.3999999999999999 -2  1.8 0.3999999999999999 -2  2 0.3999999999999999 -2  -2 0.6000000000000001 -2  -1.8 0.6000000000000001 -2  -1.6 0.6000000000000001 -2  -1.4 0.6000000000000001 -2  -1.2 0.6000000000000001 -2  -1 0.6000000000000001 -2  -0.8 0.6000000000000001 -2  -0.6000000000000001 0.6000000000000001 -2  -0.3999999999999999 0.6000000000000001 -2  -0.2 0.6000000000000001 -2  0 0.6000000000000001 -2  0.2000000000000002 0.6000000000000001 -2  0.3999999999999999 0.6000000000000001 -2  0.6000000000000001 0.6000000000000001 -2  0.7999999999999998 0.6000000000000001 -2  1 0.6000000000000001 -2  1.2 0.6000000000000001 -2  1.4 0.6000000000000001 -2  1.6 0.6000000000000001 -2  1.8 0.6000000000000001 -2  2 0.6000000000000001 -2  -2 0.7999999999999998 -2  -1.8 0.7999999999999998 -2  -1.6 0.7999999999999998 -2  -1.4 0.7999999999999998 -2  -1.2 0.7999999999999998 -2  -1 0.7999999999999998 -2  -0.8 0.7999999999999998 -2  -0.6000000000000001 0.7999999999999998 -2  -0.3999999999999999 0.7999999999999998 -2  -0.2 0.7999999999999998 -2  0 0.7999999999999998 -2  0.2000000000000002 0.7999999999999998 -2  0.3999999999999999 0.7999999999999998 -2  0.6000000000000001 0.7999999999999998 -2  0.7999999999999998 0.7999999999999998 -2  1 0.7999999999999998 -2  1.2 0.7999999999999998 -2  1.4 0.7999999999999998 -2  1.6 0.7999999999999998 -2  1.8 0.7999999999999998 -2  2 0.7999999999999998 -2  -2 1 -2  -1.8 1 -2  -1.6 1 -2  -1.4 1 -2  -1.2 1 -2  -1 1 -2  -0.8 1 -2  -0.6000000000000001 1 -2  -0.3999999999999999 1 -2  -0.2 1 -2  0 1 -2  0.2000000000000002 1 -2  0.3999999999999999 1 -2  0.6000000000000001 1 -2  0.7999999999999998 1 -2  1 1 -2  1.2 1 -2  1.4 1 -2  1.6 1 -2  1.8 1 -2  2 1 -2  -2 1.2 -2  -1.8 1.2 -2  -1.6 1.2 -2  -1.4 1.2 -2  -1.2 1.2 -2  -1 1.2 -2  -0.8 1.2 -2  -0.6000000000000001 1.2 -2  -0.3999999999999999 1.2 -2  -0.2 1.2 -2  0 1.2 -2  0.2000000000000002 1.2 -2  0.3999999999999999 1.2 -2  0.6000000000000001 1.2 -2  0.7999999999999998 1.2 -2  1 1.2 -2  1.2 1.2 -2  1.4 1.2 -2  1.6 1.2 -2  1.8 1.2 -2  2 1.2 -2  -2 1.4 -2  -1.8 1.4 -2  -1.6 1.4 -2  -1.4 1.4 -2  -1.2 1.4 -2  -1 1.4 -2  -0.8 1.4 -2  -0.6000000000000001 1.4 -2  -0.3999999999999999 1.4 -2  -0.2 1.4 -2  0 1.4 -2  0.2000000000000002 1.4 -2  0.3999999999999999 1.4 -2  0.6000000000000001 1.4 -2  0.7999999999999998 1.4 -2  1 1.4 -2  1.2 1.4 -2  1.4 1.4 -2  1.6 1.4 -2  1.8 1.4 -2  2 1.4 -2  -2 1.6 -2  -1.8 1.6 -2  -1.6 1.6 -2  -1.4 1.6 -2  -1.2 1.6 -2  -1 1.6 -2  -0.8 1.6 -2  -0.6000000000000001 1.6 -2  -0.3999999999999999 1.6 -2  -0.2 1.6 -2  0 1.6 -2  0.2000000000000002 1.6 -2  0.3999999999999999 1.6 -2  0.6000000000000001 1.6 -2  0.7999999999999998 1.6 -2  1 1.6 -2  1.2 1.6 -2  1.4 1.6 -2  1.6 1.6 -2  1.8 1.6 -2  2 1.6 -2  -2 1.8 -2  -1.8 1.8 -2  -1.6 1.8 -2  -1.4 1.8 -2  -1.2 1.8 -2  -1 1.8 -2  -0.8 1.8 -2  -0.6000000000000001 1.8 -2  -0.3999999999999999 1.8 -2  -0.2 1.8 -2  0 1.8 -2  0.2000000000000002 1.8 -2  0.3999999999999999 1.8 -2  0.6000000000000001 1.8 -2  0.7999999999999998 1.8 -2  1 1.8 -2  1.2 1.8 -2  1.4 1.8 -2  1.6 1.8 -2  1.8 1.8 -2  2 1.8 -2  -2 2 -2  -1.8 2 -2  -1.6 2 -2  -1.4 2 -2  -1.2 2 -2  -1 2 -2  -0.8 2 -2  -0.6000000000000001 2 -2  -0.3999999999999999 2 -2  -0.2 2 -2  0 2 -2  0.2000000000000002 2 -2  0.3999999999999999 2 -2  0.6000000000000001 2 -2  0.7999999999999998 2 -2  1 2 -2  1.2 2 -2  1.4 2 -2  1.6 2 -2  1.8 2 -2  2 2 -2  -2 -2 -1.8  -1.8 -2 -1.8  -1.6 -2 -1.8  -1.4 -2 -1.8  -1.2 -2 -1.8  -1 -2 -1.8  -0.8 -2 -1.8  -0.6000000000000001 -2 -1.8  -0.3999999999999999 -2 -1.8  -0.2 -2 -1.8  0 -2 -1.8  0.2000000000000002 -2 -1.8  0.3999999999999999 -2 -1.8  0.6000000000000001 -2 -1.8  0.7999999999999998 -2 -1.8  1 -2 -1.8  1.2 -2 -1.8  1.4 -2 -1.8  1.6 -2 -1.8  1.8 -2 -1.8  2 -2 -1.8  -2 -1.8 -1.8  -1.8 -1.8 -1.8  -1.6 -1.8 -1.8  -1.4 -1.8 -1.8  -1.2 -1.8 -1.8  -1 -1.8 -1.8  -0.8 -1.8 -1.8  -0.6000000000000001 -1.8 -1.8  -0.3999999999999999 -1.8 -1.8  -0.2 -1.8 -1.8  0 -1.8 -1.8  0.2000000000000002 -1.8 -1.8  0.3999999999999999 -1.8 -1.8  0.6000000000000001 -1.8 -1.8  0.7999999999999998 -1.8 -1.8  1 -1.8 -1.8  1.2 -1.8 -1.
[...]
<PointData  Scalars="uA"> 
<DataArray  type="Float64"  Name="uA"  format="ascii">-5.0528172915751329e-13  -4.7522602330321680e-13  -5.3398856481244430e-13  -7.1773022184194664e-13  -5.4681482616572420e-13  4.9708528911373644e-13  1.6046371515655440e-12  4.9346329247938372e-13  -3.5248479784931634e-12  -6.7221773188907586e-12  -4.3546781887175537e-12  2.5317302316714559e-12  7.3798836454316208e-12  6.3222144712542379e-12  2.2889852444794451e-12  -2.0365218999167611e-13  -4.2151874243421928e-13  -7.4901211920149717e-14  3.3555256298352426e-14  1.3210811223079653e-14  1.4142849023846603e-15  -4.7522602330321276e-13  -3.6324626938961181e-13  -3.7751147638907648e-13  -5.0144772648415624e-13  -3.9052378267439360e-13  3.4165411255062656e-13  1.1380015751859752e-12  3.6102347844853435e-13  -2.4933556203716564e-12  -4.7242042321311366e-12  -2.9438323909512610e-12  1.9358014700230569e-12  5.1151030341135646e-12  4.0813586749145430e-12  1.2747610686055834e-12  -1.8576485184941518e-13  -1.8025651352676816e-13  -7.8989344379715885e-15  7.5862263506044016e-16  -1.3136849763544911e-14  -1.0281823650263779e-14  -5.3398856481244652e-13  -3.7751147638907709e-13  -3.6982824955861574e-13  -4.6509825958062861e-13  -3.5807007746922990e-13  2.6540136575956966e-13  9.0983868167756143e-13  1.9415959395595025e-13  -2.2550162630475512e-12  -4.1005994420678850e-12  -2.5012358561216087e-12  1.6846247018671694e-12  4.3602080819157612e-12  3.4621851638913120e-12  1.1068517442412494e-12  -1.1491704498110177e-13  -1.5206758203588999e-13  -5.1152052168422660e-14  -2.9841340480454656e-14  -1.6685402475463113e-14  -5.3914009390266843e-15  -7.1773022184196623e-13  -5.0144772648416371e-13  -4.6509825958062831e-13  -5.4135097252736557e-13  -4.2986792448050526e-13  1.5571496666083646e-13  7.2727440956341483e-13  -8.1004993329126716e-15  -2.3419822872407744e-12  -4.0181398244592016e-12  -2.3877808305381202e-12  1.6577489423630316e-12  4.2196842461421052e-12  3.3757168108329567e-12  1.1375799188533013e-12  -5.6167102893789913e-14  -1.3947854706017910e-13  -6.3059453049240119e-14  -2.9267362606840282e-14  -1.0161394896567842e-14  -1.8175144874925873e-15  -5.4681482616574560e-13  -3.9052378267440062e-13  -3.5807007746922284e-13  -4.2986792448049905e-13  -3.2696016999816955e-13  2.3203706714217022e-13  7.7436821102951484e-13  4.8570561178313729e-14  -2.2029425612685690e-12  -3.7549968800315093e-12  -2.0452020497222335e-12  1.9912368120266763e-12  4.5018807682704639e-12  3.6181244999194235e-12  1.3409504560035675e-12  8.4687099670875677e-14  -6.3376349242907285e-14  -2.2993915228142411e-14  -2.0484635331979004e-15  5.3392255179412006e-15  5.4249561386028228e-15  4.9708528911374108e-13  3.4165411255063635e-13  2.6540136575958340e-13  1.5571496666084552e-13  2.3203706714217184e-13  7.7679334988111831e-13  1.3437882850867303e-12  6.9859976409804280e-13  -1.4374332695882251e-12  -2.9017704629569348e-12  -1.1993110597875555e-12  2.7184611025856692e-12  5.0479579457227099e-12  3.9854731502258015e-12  1.5644576196459128e-12  2.0435747107096909e-13  -7.2028825451893656e-15  4.2380694506116969e-15  1.4559943945015998e-14  1.4835422065380139e-14  1.0719660389326269e-14  1.6046371515655806e-12  1.1380015751859978e-12  9.0983868167757537e-13  7.2727440956341604e-13  7.7436821102950818e-13  1.3437882850867229e-12  2.0030239459566809e-12  1.4822902595835398e-12  -5.8652492029575290e-13  -2.1288355115704969e-12  -6.6660924266508961e-13  2.9227069733842631e-12  4.9524401834168595e-12  3.7037231572031717e-12  1.2245379410532399e-12  -1.0240081788891825e-13  -2.3799340926359197e-13  -1.4554427984939450e-13  -7.0843203578550577e-14  -2.9329436327032203e-14  -1.3055247802971103e-14  4.9346329247943299e-13  3.6102347844855434e-13  1.9415959395595211e-13  -8.1004993329212292e-15  4.8570561178300432e-14  6.9859976409803422e-13  1.4822902595835392e-12  1.0208045701135380e-12  -1.1802120125013476e-12  -3.0744416315901448e-12  -2.0610890535187341e-12  1.1850163581364818e-12  3.1261042069029246e-12  2.0567662872650878e-12  -7.5107570379233120e-14  -1.0173166030611568e-12  -8.2291196525027345e-13  -4.9058189475429904e-13  -2.6140271328389048e-13  -1.2982793911273646e-13  -6.9003865931722568e-14  -3.5248479784931243e-12  -2.4933556203716487e-12  -2.2550162630475625e-12  -2.3419822872407877e-12  -2.2029425612685811e-12  -1.4374332695882300e-12  -5.8652492029575350e-13  -1.1802120125013533e-12  -3.7761858281447508e-12  -6.1797009124479431e-12  -5.4868974852882133e-12  -2.1266245284247982e-12  3.7856477807756872e-13  1.1870236486547487e-13  -1.2261091863397936e-12  -1.5817185263324448e-12  -1.0409261236446204e-12  -5.4837899019715027e-13  -2.6588220152318280e-13  -1.2633060660894534e-13  -6.4871894009981809e-14  -6.7221773188907457e-12  -4.7242042321311431e-12  -4.1005994420679012e-12  -4.0181398244592161e-12  -3.7549968800315166e-12  -2.9017704629569352e-12  -2.1288355115704969e-12  -3.0744416315901525e-12  -6.1797009124479592e-12  -8.8829711426333544e-12  -7.9128430575664987e-12  -3.6425136071352390e-12  8.1969704375579283e-14  8.8147709046670592e-13  1.2361892020026427e-13  -1.4560256691293839e-13  1.5417329962480152e-13  2.9165109224485809e-13  2.5121120844021183e-13  1.6020879050710227e-13  1.0032855071803985e-13  -4.3546781887175755e-12  -2.9438323909512869e-12  -2.5012358561216272e-12  -2.3877808305381340e-12  -2.0452020497222383e-12  -1.1993110597875549e-12  -6.6660924266509345e-13  -2.0610890535187495e-12  -5.4868974852882327e-12  -7.9128430575665052e-12  -5.8967511168834273e-12  -1.8900308490384161e-13  4.6671197705938576e-12  5.7716889529741689e-12  4.4560618852134371e-12  3.1258988977177174e-12  2.3061547558892321e-12  1.5511772271387913e-12  9.2245828782470021e-13  4.9675355479015740e-13  2.7589410663592756e-13  2.5317302316713917e-12  1.9358014700230129e-12  1.6846247018671512e-12  1.6577489423630250e-12  1.9912368120266698e-12  2.7184611025856676e-12  2.9227069733842562e-12  1.1850163581364648e-12  -2.1266245284248156e-12  -3.6425136071352398e-12  -1.8900308490381637e-13  6.6451999497668441e-12  1.1524149841908806e-11  1.1406676853871453e-11  8.1727999946522193e-12  4.9959608638901955e-12  2.8974088188083189e-12  1.5049975193291861e-12  6.8771609514807618e-13  2.8401717883815936e-13  1.1063564154820213e-13  7.3798836454315497e-12  5.1151030341135266e-12  4.3602080819157555e-12  4.2196842461421101e-12  4.5018807682704639e-12  5.0479579457227026e-12  4.9524401834168531e-12  3.1261042069029117e-12  3.7856477807756403e-13  8.1969704375591400e-14  4.6671197705938826e-12  1.1524149841908828e-11  1.4905982547934998e-11  1.2363465354311081e-11  6.8896577774145825e-12  2.4724392919446328e-12  2.3593970934474130e-13  -6.1104279321036662e-13  -7.0284785347422698e-13  -5.1346987188453738e-13  -3.5188858017790871e-13  6.3222144712541895e-12  4.0813586749145293e-12  3.4621851638913205e-12  3.3757168108329656e-12  3.6181244999194227e-12  3.9854731502257991e-12  3.7037231572031717e-12  2.0567662872650817e-12  1.1870236486547732e-13  8.8147709046672399e-13  5.7716889529741931e-12  1.1406676853871469e-11  1.2363465354311076e-11  7.4795037296442652e-12  9.6810811320814125e-13  -2.8965454916538256e-12  -3.6151340052602266e-12  -2.8509183639557482e-12  -1.7704674096005033e-12  -9.3185420915626548e-13  -4.8172034819366715e-13  2.2889852444794289e-12  1.2747610686055888e-12  1.1068517442412624e-12  1.1375799188533051e-12  1.3409504560035639e-12  1.5644576196459146e-12  1.2245379410532403e-12  -7.5107570379237159e-14  -1.2261091863397902e-12  1.2361892020027664e-13  4.4560618852134508e-12  8.1727999946522273e-12  6.8896577774145793e-12  9.6810811320814933e-13  -4.6777254462585683e-12  -6.3795164961969485e-12  -4.8717676594883321e-12  -2.6883183925087356e-12  -1.1000001004760057e-12  -2.9664009046208867e-13  9.5869784864875808e-15  -2.0365218999167338e-13  -1.8576485184940407e-13  -1.1491704498109377e-13  -5.6167102893793700e-14  8.4687099670870274e-14  2.0435747107097187e-13  -1.0240081788891694e-13  -1.0173166030611596e-12  -1.5817185263324410e-12  -1.4560256691292895e-13  3.1258988977177239e-12  4.9959608638901955e-12  2.4724392919446283e-12  -2.8965454916538191e-12  -6.3795164961969502e-12  -5.6548456599443986e-12  -2.7348717491095306e-12  -4.4798401639402308e-13  4.9580044748256651e-13  5.8118836018037042e-13  4.4098761400570879e-13  -4.2151874243420918e-13  -1.8025651352675872e-13  -1.5206758203588787e-13  -1.3947854706018480e-13  -6.3376349242910567e-14  -7.2028825451856927e-15  -2.3799340926359025e-13  -8.2291196525027385e-13  -1.0409261236446176e-12  1.5417329962480614e-13  2.3061547558892321e-12  2.8974088188083144e-12  2.3593970934473746e-13  -3.6151340052602257e-12  -4.8717676594883305e-12  -2.7348717491095302e-12  8.1649835800594911e-14  1.2719688518886169e-12  1.1038979297185147e-12  5.7172252382133695e-13  2.1216444610545114e-13  -7.4901211920140428e-14  -7.8989344379658140e-15  -5.1152052168423379e-14  -6.3059453049244461e-14  -2.2993915228144103e-14  4.2380694506142717e-15  -1.4554427984939337e-13  -4.9058189475429925e-13  -5.4837899019714886e-13  2.9165109224485975e-13  1.5511772271387903e-12  1.5049975193291825e-12  -6.1104279321036965e-13  -2.8509183639557458e-12  -2.6883183925087336e-12  -4.4798401639402328e-13  1.2719688518886165e-12  1.2157059893669210e-12  4.6674304021751513e-13  -2.5039820047259405e-14  -1.7926792019809221e-13  3.3555256298358870e-14  7.5862263506341575e-16  -2.9841340480456234e-14  -2.9267362606843160e-14  -2.0484635331983848e-15  1.4559943945017809e-14  -7.0843203578549895e-14  -2.6140271328389078e-13  -2.6588220152318220e-13  2.5121120844021274e-13  9.2245828782469920e-13  6.8771609514807427e-13  -7.0284785347422698e-13  -1.7704674096005013e-12  -1.1000001004760063e-12  4.9580044748256580e-13  1.1038979297185143e-12  4.6674304021751502e-13  -1.1704464256369795e-13  -2.1288406580341920e-13  -1.1939572601791941e-13  1.3210811223083508e-14  -1.3136849763543658e-14  -1.6685402475464618e-14  -1.0161394896569530e-14  5.3392255179413758e-15  1.4835422065381392e-14  -2.9329436327031976e-14  -1.2982793911273687e-13  -1.2633060660894494e-13  1.6020879050710264e-13  4.9675355479015679e-13  2.8401717883815820e-13  -5.1346987188453738e-13  -9.3185420915626447e-13  -2.9664009046208918e-13  5.8118836018036931e-13  5.7172252382133675e-13  -2.5039820047259354e-14  -2.1288406580341908e-13  -7.9440160850410771e-14  2.0520566260317380e-14  1.4142849023872494e-15  -1.0281823650263261e-14  -5.3914009390279386e-15  -1.8175144874935308e-15  5.4249561386032733e-15  1.0719660389327143e-14  -1.3055247802971169e-14  -6.9003865931722972e-14  -6.4871894009981443e-14  1.0032855071804015e-13  2.7589410663592716e-13  1.1063564154820154e-13  -3.5188858017790887e-13  -4.8172034819366695e-13  9.5869784864874104e-15  4.4098761400570843e-13  2.1216444610545124e-13  -1.7926792019809221e-13  -1.1939572601791936e-13  2.0520566260317361e-14  3.9082830681175829e-14  6.4492973765407548e-12  4.4412237387603410e-12  3.7861685295198326e-12  3.7899526987250190e-12  4.4457702728610879e-12  5.0825133658572440e-12  3.7244389096921160e-12  -3.8775401507680290e-13  -3.0077741342006009e-12  2.4562785945699463e-12  1.4820933640392412e-11  2.1992216172677581e-11  1.4527314956354595e-11  -1.0933157850606686e-12  -1.0311143132839020e-11  -8.4210275390027617e-12  -2.7918651807619256e-12  -1.1505242061150954e-13  9.9177382468110507e-14  -8.0122014056350563e-14  -8.7699432917650207e-14  4.4412237387603362e-12  2.7111767151653317e-12  2.2465520443186387e-12  2.2392637421932669e-12  2.6464864298677470e-12  3.0862662677290964e-12  2.3028377739178061e-12  -2.9942478955085255e-13  -2.1010652735227913e-12  1.2211188003370649e-12  9.0597469963180397e-12  1.3604486772845971e-11  8.7851395929446357e-12  -9.3614259989256181e-13  -6.1584782410828565e-12  -4.5169668558756631e-12  -1.2395669429440179e-12  -1.0401270289159050e-13  -1.0638495996293558e-13  -1.1369393334489719e-13  -5.1755095965499576e-14  3.7861685295198043e-12  2.2465520443186262e-12  1.8532128821100935e-12  1.8536848539679973e-12  2.1930556818044389e-12  2.5357687623274124e-12  1.8425722041216236e-12  -3.2737875170198838e-13  -1.7419911818487647e-12  1.1453516053481995e-12  7.6842494230647861e-12  1.1316278810990431e-11  7.1442565628363775e-12  -9.2500217575196295e-13  -5.1261075298338371e-12  -3.7348842954526327e-12  -1.1417556298516844e-12  -2.5401220225422489e-13  -1.3563042638293092e-13  -6.4423838725316526e-14  -1.2898001436645497e-14  3.7899526987249754e-12  2.2392637421932512e-12  1.8536848539680001e-12  1.8553301752574988e-12  2.1742588940123144e-12  2.4765172048751146e-12  1.7847647845297541e-12  -2.6566468859514405e-13  -1.5147488334328070e-12  1.3412834258188903e-12  7.5625462122396192e-12  1.0912820461701309e-11  6.8682331211649636e-12  -7.9760292800568195e-13  -4.7969206170195045e-12  -3.5564015720984578e-12  -1.1655537779491162e-12  -2.9564031722085791e-13  -1.0652762421378653e-13  -3.1585993065556086e-14  -3.8592544347398705e-15  4.4457702728610766e-12  2.6464864298677539e-12  2.1930556818044559e-12  2.1742588940123241e-12  2.4774587299147521e-12  2.7655678410269671e-12  2.0856439413981563e-12  1.0109258320121004e-13  -1.0525554044307187e-12  1.8339870520664489e-12  7.9580080341306203e-12  1.1161293066253989e-11  7.0512510515666842e-12  -6.0319766763300341e-13  -4.6318412517833038e-12  -3.4894947207598534e-12  -1.1712973778620780e-12  -2.9788503800400434e-13  -8.4744148420045244e-14  -2.0171945540146947e-14  -3.7807564902944244e-15  5.0825133658572844e-12  3.0862662677291250e-12  2.5357687623274306e-12  2.4765172048751170e-12  2.7655678410269591e-12  3.0670455421022429e-12  2.4345252787080364e-12  5.1584545674196655e-13  -6.0259044047954355e-13  2.2277870091094231e-12  8.1874242702832238e-12  1.1181274348300048e-11  6.9120387072877150e-12  -8.1354053724156330e-13  -4.8553645355322292e-12  -3.6969389048208930e-12  -1.3339965455694453e-12  -3.9782487975170056e-13  -1.3441436168173988e-13  -4.8330035273952789e-14  -1.8187993905119109e-14  3.7244389096921621e-12  2.3028377739178291e-12  1.8425722041216204e-12  1.7847647845297322e-12  2.0856439413981301e-12  2.4345252787080211e-12  1.8645114054300038e-12  -4.1116644156157002e-14  -1.2637378922149840e-12  1.3375918276524366e-12  7.0243087536909668e-12  9.8304566404001620e-12  5.5514529664191860e-12  -2.0084817287773620e-12  -5.7878787930770414e-12  -4.3562842065132562e-12  -1.7600951540754306e-12  -6.5011893880203585e-13  -2.7391212465025109e-13  -1.2368774571394224e-13  -5.4716810736380702e-14  -3.8775401507679845e-13  -2.9942478955086436e-13  -3.2737875170202256e-13  -2.6566468859518600e-13  1.0109258320117346e-13  5.1584545674195130e-13  -4.1116644156154326e-14  -2.0734561421671296e-12  -3.5779818788289697e-12  -1.2907535809279064e-12  4.2570178016381326e-12  7.2483971931908654e-12  3.4637756020140950e-12  -3.4533224579850348e-12  -6.6347059853355254e-12  -4.7692983865599869e-12  -1.9211040490682350e-12  -6.9569008123898309e-13  -2.8187486442035005e-13  -1.2641715591042303e-13  -5.8121079721377740e-14  -3.0077741342006538e-12  -2.1010652735228325e-12  -1.7419911818488109e-12  -1.5147488334328457e-12  -1.0525554044307419e-12  -6.0259044047954608e-13  -1.2637378922149764e-12  -3.5779818788289653e-12  -5.4092302715994877e-12  -3.2074600589211180e-12  2.7334656168356615e-12  6.5742952581231512e-12  3.8015130523758640e-12  -2.3099150122200275e-12  -5.1112505064153086e-12  -3.2818388046748894e-12  -7.2523322083722354e-13  1.3416000036778503e-13  2.2725224380624793e-13  1.5296652740979737e-13  7.6951069055487952e-14  2.4562785945698381e-12  1.2211188003370061e-12  1.1453516053481636e-12  1.3412834258188717e-12  1.8339870520664408e-12  2.2277870091094336e-12  1.3375918276524496e-12  -1.2907535809279012e-12  -3.2074600589211201e-12  -5.2474830194612979e-13  6.4856313164493299e-12  1.1561658186287047e-11  9.5768280128629382e-12  3.4191447913341601e-12  -2.1014334827359782e-13  3.8310983604290144e-13  1.7098024722042657e-12  1.5984627453217797e-12  1.0399854464115391e-12  5.7625356177097179e-13  2.8077048241829785e-13  1.4820933640392253e-11  9.0597469963179767e-12  7.6842494230647683e-12  7.5625462122396241e-12  7.9580080341306349e-12  8.1874242702832448e-12  7.0243087536909781e-12  4.2570178016381285e-12  2.7334656168356566e-12  6.4856313164493476e-12  1.4797682546869824e-11  2.0554795587860839e-11  1.7986294847156821e-11  1.0028388998201732e-11  4.0467988495939386e-12  2.5214460888593604e-12  2.4219773789211360e-12  1.6037041402282550e-12  8.2936794307750979e-13  3.8134843172523363e-13  1.6095267915464354e-13  2.1992216172677419e-11  1.3604486772845916e-11  1.1316278810990437e-11  1.0912820461701331e-11  1.1161293066254012e-11  1.1181274348300069e-11  9.8304566404001717e-12  7.2483971931908565e-12  6.5742952581231592e-12  1.1561658186287080e-11  2.0554795587860887e-11  2.5487276490883086e-11  2.0476432385441878e-11  9.3734293579675034e-12  8.2720453638792084e-13  -1.8838014247951263e-12  -1.8156922837843213e-12  -1.6825383873427958e-12  -1.3400037627019814e-12  -8.7489980643601237e-13  -4.8132567014215442e-13  1.4527314956354521e-11  8.7851395929446373e-12  7.1442565628364251e-12  6.8682331211650080e-12  7.0512510515667076e-12  6.9120387072877320e-12  5.5514529664191787e-12  3.4637756020140777e-12  3.8015130523758810e-12  9.5768280128629802e-12  1.7986294847156860e-11  2.0476432385441898e-11  1.2053181175096287e-11  -1.6782119734269330e-12  -1.0741189539944886e-11  -1.1807522461707377e-11  -8.9374171808205562e-12  -6.0351390066308328e-12  -3.6484166971574395e-12  -1.9605217392844806e-12  -9.3462095051584895e-13  -1.0933157850606686e-12  -9.3614259989251375e-13  -9.2500217575190742e-13  -7.9760292800564802e-13  -6.0319766763299594e-13  -8.1354053724156512e-13  -2.0084817287773656e-12  -3.4533224579850498e-12  -2.3099150122200109e-12  3.4191447913341932e-12  1.0028388998201749e-11  9.3734293579674905e-12  -1.6782119734269807e-12  -1.5577235770783215e-11  -2.1895620931141245e-11  -1.8596600487232042e-11  -1.1643427506985533e-11  -6.1472197285749312e-12  -2.7305379990750653e-12  -9.8496424308902403e-13  -2.5313525706300359e-13  -1.0311143132838956e-11  -6.1584782410828008e-12  -5.1261075298338073e-12  -4.7969206170194989e-12  -4.6318412517832981e-12  -4.8553645355322187e-12  -5.7878787930770543e-12  -6.6347059853355367e-12  -5.1112505064152925e-12  -2.1014334827357765e-13  4.0467988495939369e-12  8.2720453638789378e-13  -1.0741189539944923e-11  -2.1895620931141239e-11  -2.3265843234632322e-11  -1.5298088664713228e-11  -5.9140787801427259e-12  -4.8179279991480697e-13  1.4522758615916713e-12  1.5215185203620132e-12  1.0115932800879441e-12  -8.4210275390026955e-12  -4.5169668558756259e-12  -3.7348842954526295e-12  -3.5564015720984711e-12  -3.4894947207598518e-12  -3.6969389048208809e-12  -4.3562842065132602e-12  -4.7692983865599861e-12  -3.2818388046748769e-12  3.8310983604290780e-13  2.5214460888593470e-12  -1.8838014247951441e-12  -1.1807522461707412e-11  -1.8596600487232045e-11  -1.5298088664713238e-11  -5.0926322095256653e-12  3.2237654818481381e-12  5.5778478158729053e-12  4.4252905481691673e-12  2.5171144405125656e-12  1.1196812813397059e-12  -2.7918651807618780e-12  -1.2395669429440024e-12  -1.1417556298516953e-12  -1.1655537779491317e-12  -1.1712973778620788e-12  -1.3339965455694383e-12  -1.7600951540754328e-12  -1.9211040490682367e-12  -7.2523322083722000e-13  1.7098024722042641e-12  2.4219773789211227e-12  -1.8156922837843374e-12  -8.9374171808205611e-12  -1.1643427506985530e-11  -5.9140787801427243e-12  3.2237654818481365e-12  7.8132904530826028e-12  6.2898737528474221e-12  3.0089397612002652e-12  7.6846996649326968e-13  -1.2598462995377535e-13  -1.1505242061148251e-13  -1.0401270289158444e-13  -2.5401220225423545e-13  -2.9564031722086740e-13  -2.9788503800400323e-13  -3.9782487975169556e-13  -6.5011893880203686e-13  -6.9569008123898501e-13  1.3416000036778526e-13  1.5984627453217777e-12  1.6037041402282473e-12  -1.6825383873428037e-12  -6.0351390066308352e-12  -6.1472197285749255e-12  -4.81792799914802