<?xml version="1.0"?>
<VTKFile type="UnstructuredGrid"  version="0.1"  >
<UnstructuredGrid>
<Piece  NumberOfPoints="9261" NumberOfCells="48000">
<Points>
<DataArray  type="Float64"  NumberOfComponents="3"  format="ascii">-2 -2 -2  -1.8 -2 -2  -1.6 -2 -2  -1.4 -2 -2  -1.2 -2 -2  -1 -2 -2  -0.8 -2 -2  -0.6000000000000001 -2 -2  -0.3999999999999999 -2 -2  -0.2 -2 -2  0 -2 -2  0.2000000000000002 -2 -2  0.3999999999999999 -2 -2  0.6000000000000001 -2 -2  0.7999999999999998 -2 -2  1 -2 -2  1.2 -2 -2  1.4 -2 -2  1.6 -2 -2  1.8 -2 -2  2 -2 -2  -2 -1.8 -2  -1.8 -1.8 -2  -1.6 -1.8 -2  -1.4 -1.8 -2  -1.2 -1.8 -2  -1 -1.8 -2  -0.8 -1.8 -2  -0.6000000000000001 -1.8 -2  -0.3999999999999999 -1.8 -2  -0.2 -1.8 -2  0 -1.8 -2  0.2000000000000002 -1.8 -2  0.3999999999999999 -1.8 -2  0.6000000000000001 -1.8 -2  0.7999999999999998 -1.8 -2  1 -1.8 -2  1.2 -1.8 -2  1.4 -1.8 -2  1.6 -1.8 -2  1.8 -1.8 -2  2 -1.8 -2  -2 -1.6 -2  -1.8 -1.6 -2  -1.6 -1.6 -2  -1.4 -1.6 -2  -1.2 -1.6 -2  -1 -1.6 -2  -0.8 -1.6 -2  -0.6000000000000001 -1.6 -2  -0.3999999999999999 -1.6 -2  -0.2 -1.6 -2  0 -1.6 -2  0.2000000000000002 -1.6 -2  0.3999999999999999 -1.6 -2  0.6000000000000001 -1.6 -2  0.7999999999999998 -1.6 -2  1 -1.6 -2  1.2 -1.6 -2  1.4 -1.6 -2  1.6 -1.6 -2  1.8 -1.6 -2  2 -1.6 -2  -2 -1.4 -2  -1.8 -1.4 -2  -1.6 -1.4 -2  -1.4 -1.4 -2  -1.2 -1.4 -2  -1 -1.4 -2  -0.8 -1.4 -2  -0.6000000000000001 -1.4 -2  -0.3999999999999999 -1.4 -2  -0.2 -1.4 -2  0 -1.4 -2  0.2000000000000002 -1.4 -2  0.3999999999999999 -1.4 -2  0.6000000000000001 -1.4 -2  0.7999999999999998 -1.4 -2  1 -1.4 -2  1.2 -1.4 -2  1.4 -1.4 -2  1.6 -1.4 -2  1.8 -1.4 -2  2 -1.4 -2  -2 -1.2 -2  -1.8 -1.2 -2  -1.6 -1.2 -2  -1.4 -1.2 -2  -1.2 -1.2 -2  -1 -1.2 -2  -0.8 -1.2 -2  -0.6000000000000001 -1.2 -2  -0.3999999999999999 -1.2 -2  -0.2 -1.2 -2  0 -1.2 -2  0.2000000000000002 -1.2 -2  0.3999999999999999 -1.2 -2  0.6000000000000001 -1.2 -2  0.7999999999999998 -1.2 -2  1 -1.2 -2  1.2 -1.2 -2  1.4 -1.2 -2  1.6 -1.2 -2  1.8 -1.2 -2  2 -1.2 -2  -2 -1 -2  -1.8 -1 -2  -1.6 -1 -2  -1.4 -1 -2  -1.2 -1 -2  -1 -1 -2  -0.8 -1 -2  -0.6000000000000001 -1 -2  -0.3999999999999999 -1 -2  -0.2 -1 -2  0 -1 -2  0.2000000000000002 -1 -2  0.3999999999999999 -1 -2  0.6000000000000001 -1 -2  0.7999999999999998 -1 -2  1 -1 -2  1.2 -1 -2  1.4 -1 -2  1.6 -1 -2  1.8 -1 -2  2 -1 -2  -2 -0.8 -2  -1.8 -0.8 -2  -1.6 -0.8 -2  -1.4 -0.8 -2  -1.2 -0.8 -2  -1 -0.8 -2  -0.8 -0.8 -2  -0.6000000000000001 -0.8 -2  -0.3999999999999999 -0.8 -2  -0.2 -0.8 -2  0 -0.8 -2  0.2000000000000002 -0.8 -2  0.3999999999999999 -0.8 -2  0.6000000000000001 -0.8 -2  0.7999999999999998 -0.8 -2  1 -0.8 -2  1.2 -0.8 -2  1.4 -0.8 -2  1.6 -0.8 -2  1.8 -0.8 -2  2 -0.8 -2  -2 -0.6000000000000001 -2  -1.8 -0.6000000000000001 -2  -1.6 -0.6000000000000001 -2  -1.4 -0.6000000000000001 -2  -1.2 -0.6000000000000001 -2  -1 -0.6000000000000001 -2  -0.8 -0.6000000000000001 -2  -0.6000000000000001 -0.6000000000000001 -2  -0.3999999999999999 -0.6000000000000001 -2  -0.2 -0.6000000000000001 -2  0 -0.6000000000000001 -2  0.2000000000000002 -0.6000000000000001 -2  0.3999999999999999 -0.6000000000000001 -2  0.6000000000000001 -0.6000000000000001 -2  0.7999999999999998 -0.6000000000000001 -2  1 -0.6000000000000001 -2  1.2 -0.6000000000000001 -2  1.4 -0.6000000000000001 -2  1.6 -0.6000000000000001 -2  1.8 -0.6000000000000001 -2  2 -0.6000000000000001 -2  -2 -0.3999999999999999 -2  -1.8 -0.3999999999999999 -2  -1.6 -0.3999999999999999 -2  -1.4 -0.3999999999999999 -2  -1.2 -0.3999999999999999 -2  -1 -0.3999999999999999 -2  -0.8 -0.3999999999999999 -2  -0.6000000000000001 -0.3999999999999999 -2  -0.3999999999999999 -0.3999999999999999 -2  -0.2 -0.3999999999999999 -2  0 -0.3999999999999999 -2  0.2000000000000002 -0.3999999999999999 -2  0.3999999999999999 -0.3999999999999999 -2  0.6000000000000001 -0.3999999999999999 -2  0.7999999999999998 -0.3999999999999999 -2  1 -0.3999999999999999 -2  1.2 -0.3999999999999999 -2  1.4 -0.3999999999999999 -2  1.6 -0.3999999999999999 -2  1.8 -0.3999999999999999 -2  2 -0.3999999999999999 -2  -2 -0.2 -2  -1.8 -0.2 -2  -1.6 -0.2 -2  -1.4 -0.2 -2  -1.2 -0.2 -2  -1 -0.2 -2  -0.8 -0.2 -2  -0.6000000000000001 -0.2 -2  -0.3999999999999999 -0.2 -2  -0.2 -0.2 -2  0 -0.2 -2  0.2000000000000002 -0.2 -2  0.3999999999999999 -0.2 -2  0.6000000000000001 -0.2 -2  0.7999999999999998 -0.2 -2  1 -0.2 -2  1.2 -0.2 -2  1.4 -0.2 -2  1.6 -0.2 -2  1.8 -0.2 -2  2 -0.2 -2  -2 0 -2  -1.8 0 -2  -1.6 0 -2  -1.4 0 -2  -1.2 0 -2  -1 0 -2  -0.8 0 -2  -0.6000000000000001 0 -2  -0.3999999999999999 0 -2  -0.2 0 -2  0 0 -2  0.2000000000000002 0 -2  0.3999999999999999 0 -2  0.6000000000000001 0 -2  0.7999999999999998 0 -2  1 0 -2  1.2 0 -2  1.4 0 -2  1.6 0 -2  1.8 0 -2  2 0 -2  -2 0.2000000000000002 -2  -1.8 0.2000000000000002 -2  -1.6 0.2000000000000002 -2  -1.4 0.2000000000000002 -2  -1.2 0.2000000000000002 -2  -1 0.2000000000000002 -2  -0.8 0.2000000000000002 -2  -0.6000000000000001 0.2000000000000002 -2  -0.3999999999999999 0.2000000000000002 -2  -0.2 0.2000000000000002 -2  0 0.2000000000000002 -2  0.2000000000000002 0.2000000000000002 -2  0.3999999999999999 0.2000000000000002 -2  0.6000000000000001 0.2000000000000002 -2  0.7999999999999998 0.2000000000000002 -2  1 0.2000000000000002 -2  1.2 0.2000000000000002 -2  1.4 0.2000000000000002 -2  1.6 0.2000000000000002 -2  1.8 0.2000000000000002 -2  2 0.2000000000000002 -2  -2 0.3999999999999999 -2  -1.8 0.3999999999999999 -2  -1.6 0.3999999999999999 -2  -1.4 0.3999999999999999 -2  -1.2 0.3999999999999999 -2  -1 0.3999999999999999 -2  -0.8 0.3999999999999999 -2  -0.6000000000000001 0.3999999999999999 -2  -0.3999999999999999 0.3999999999999999 -2  -0.2 0.3999999999999999 -2  0 0.3999999999999999 -2  0.2000000000000002 0.3999999999999999 -2  0.3999999999999999 0.3999999999999999 -2  0.6000000000000001 0.3999999999999999 -2  0.7999999999999998 0.3999999999999999 -2  1 0.3999999999999999 -2  1.2 0.3999999999999999 -2  1.4 0.3999999999999999 -2  1.6 0.3999999999999999 -2  1.8 0.3999999999999999 -2  2 0.3999999999999999 -2  -2 0.6000000000000001 -2  -1.8 0.6000000000000001 -2  -1.6 0.6000000000000001 -2  -1.4 0.6000000000000001 -2  -1.2 0.6000000000000001 -2  -1 0.6000000000000001 -2  -0.8 0.6000000000000001 -2  -0.6000000000000001 0.6000000000000001 -2  -0.3999999999999999 0.6000000000000001 -2  -0.2 0.6000000000000001 -2  0 0.6000000000000001 -2  0.2000000000000002 0.6000000000000001 -2  0.3999999999999999 0.6000000000000001 -2  0.6000000000000001 0.6000000000000001 -2  0.7999999999999998 0.6000000000000001 -2  1 0.6000000000000001 -2  1.2 0.6000000000000001 -2  1.4 0.6000000000000001 -2  1.6 0.6000000000000001 -2  1.8 0.6000000000000001 -2  2 0.6000000000000001 -2  -2 0.7999999999999998 -2  -1.8 0.7999999999999998 -2  -1.6 0.7999999999999998 -2  -1.4 0.7999999999999998 -2  -1.2 0.7999999999999998 -2  -1 0.7999999999999998 -2  -0.8 0.7999999999999998 -2  -0.6000000000000001 0.7999999999999998 -2  -0.3999999999999999 0.7999999999999998 -2  -0.2 0.7999999999999998 -2  0 0.7999999999999998 -2  0.2000000000000002 0.7999999999999998 -2  0.3999999999999999 0.7999999999999998 -2  0.6000000000000001 0.7999999999999998 -2  0.7999999999999998 0.7999999999999998 -2  1 0.7999999999999998 -2  1.2 0.7999999999999998 -2  1.4 0.7999999999999998 -2  1.6 0.7999999999999998 -2  1.8 0.7999999999999998 -2  2 0.7999999999999998 -2  -2 1 -2  -1.8 1 -2  -1.6 1 -2  -1.4 1 -2  -1.2 1 -2  -1 1 -2  -0.8 1 -2  -0.6000000000000001 1 -2  -0.3999999999999999 1 -2  -0.2 1 -2  0 1 -2  0.2000000000000002 1 -2  0.3999999999999999 1 -2  0.6000000000000001 1 -2  0.7999999999999998 1 -2  1 1 -2  1.2 1 -2  1.4 1 -2  1.6 1 -2  1.8 1 -2  2 1 -2  -2 1.2 -2  -1.8 1.2 -2  -1.6 1.2 -2  -1.4 1.2 -2  -1.2 1.2 -2  -1 1.2 -2  -0.8 1.2 -2  -0.6000000000000001 1.2 -2  -0.3999999999999999 1.2 -2  -0.2 1.2 -2  0 1.2 -2  0.2000000000000002 1.2 -2  0.3999999999999999 1.2 -2  0.6000000000000001 1.2 -2  0.7999999999999998 1.2 -2  1 1.2 -2  1.2 1.2 -2  1.4 1.2 -2  1.6 1.2 -2  1.8 1.2 -2  2 1.2 -2  -2 1.4 -2  -1.8 1.4 -2  -1.6 1.4 -2  -1.4 1.4 -2  -1.2 1.4 -2  -1 1.4 -2  -0.8 1.4 -2  -0.6000000000000001 1.4 -2  -0.3999999999999999 1.4 -2  -0.2 1.4 -2  0 1.4 -2  0.2000000000000002 1.4 -2  0.3999999999999999 1.4 -2  0.6000000000000001 1.4 -2  0.7999999999999998 1.4 -2  1 1.4 -2  1.2 1.4 -2  1.4 1.4 -2  1.6 1.4 -2  1.8 1.4 -2  2 1.4 -2  -2 1.6 -2  -1.8 1.6 -2  -1.6 1.6 -2  -1.4 1.6 -2  -1.2 1.6 -2  -1 1.6 -2  -0.8 1.6 -2  -0.6000000000000001 1.6 -2  -0.3999999999999999 1.6 -2  -0.2 1.6 -2  0 1.6 -2  0.2000000000000002 1.6 -2  0.3999999999999999 1.6 -2  0.6000000000000001 1.6 -2  0.7999999999999998 1.6 -2  1 1.6 -2  1.2 1.6 -2  1.4 1.6 -2  1.6 1.6 -2  1.8 1.6 -2  2 1.6 -2  -2 1.8 -2  -1.8 1.8 -2  -1.6 1.8 -2  -1.4 1.8 -2  -1.2 1.8 -2  -1 1.8 -2  -0.8 1.8 -2  -0.6000000000000001 1.8 -2  -0.3999999999999999 1.8 -2  -0.2 1.8 -2  0 1.8 -2  0.2000000000000002 1.8 -2  0.3999999999999999 1.8 -2  0.6000000000000001 1.8 -2  0.7999999999999998 1.8 -2  1 1.8 -2  1.2 1.8 -2  1.4 1.8 -2  1.6 1.8 -2  1.8 1.8 -2  2 1.8 -2  -2 2 -2  -1.8 2 -2  -1.6 2 -2  -1.4 2 -2  -1.2 2 -2  -1 2 -2  -0.8 2 -2  -0.6000000000000001 2 -2  -0.3999999999999999 2 -2  -0.2 2 -2  0 2 -2  0.2000000000000002 2 -2  0.3999999999999999 2 -2  0.6000000000000001 2 -2  0.7999999999999998 2 -2  1 2 -2  1.2 2 -2  1.4 2 -2  1.6 2 -2  1.8 2 -2  2 2 -2  -2 -2 -1.8  -1.8 -2 -1.8  -1.6 -2 -1.8  -1.4 -2 -1.8  -1.2 -2 -1.8  -1 -2 -1.8  -0.8 -2 -1.8  -0.6000000000000001 -2 -1.8  -0.3999999999999999 -2 -1.8  -0.2 -2 -1.8  0 -2 -1.8  0.2000000000000002 -2 -1.8  0.3999999999999999 -2 -1.8  0.6000000000000001 -2 -1.8  0.7999999999999998 -2 -1.8  1 -2 -1.8  1.2 -2 -1.8  1.4 -2 -1.8  1.6 -2 -1.8  1.8 -2 -1.8  2 -2 -1.8  -2 -1.8 -1.8  -1.8 -1.8 -1.8  -1.6 -1.8 -1.8  -1.4 -1.8 -1.8  -1.2 -1.8 -1.8  -1 -1.8 -1.8  -0.8 -1.8 -1.8  -0.6000000000000001 -1.8 -1.8  -0.3999999999999999 -1.8 -1.8  -0.2 -1.8 -1.8  0 -1.8 -1.8  0.2000000000000002 -1.8 -1.8  0.3999999999999999 -1.8 -1.8  0.6000000000000001 -1.8 -1.8  0.7999999999999998 -1.8 -1.8  1 -1.8 -1.8  1.2 -1.8 -1.
[...]
<PointData  Scalars="uA"> 
<DataArray  type="Float64"  Name="uA"  format="ascii">1.8285495990423741e-12  1.4805434122313527e-12  1.4016199058930578e-12  1.7250452723051061e-12  1.9983466073289700e-12  1.0486832162597808e-12  -1.5264735054292909e-12  -3.1785391220198805e-12  3.9836900360817857e-13  9.2615481132216266e-12  1.5630168095969051e-11  1.0781389365055210e-11  -3.6314152793043930e-12  -1.5567879167930403e-11  -1.5847111147904710e-11  -7.5802702442664498e-12  -2.4938339149651508e-13  1.7030486313600802e-12  8.6909898276524183e-13  1.1147264641252531e-13  -6.1564546546807892e-14  1.4805434122313465e-12  9.9812961257186867e-13  9.1497549940094456e-13  1.1419630997542953e-12  1.3436259446314327e-12  6.6605167789061570e-13  -1.1907308063363945e-12  -2.3590247727482234e-12  3.0420097351084762e-13  6.7258255020357541e-12  1.1042220337621125e-11  7.0159127359763932e-12  -3.5252659841016021e-12  -1.1371480543228065e-11  -1.0435822878038704e-11  -4.1365936059495865e-12  4.0135348436573334e-13  9.6217326014692823e-13  2.3858748021768643e-13  -7.1828769241482436e-14  -6.4839325102786941e-14  1.4016199058930503e-12  9.1497549940094194e-13  8.2880437589895818e-13  1.0118718706414832e-12  1.1650309074877999e-12  5.7461251630965034e-13  -9.8411788338692159e-13  -1.9113640133258404e-12  4.1697864130185203e-13  5.8532237689083303e-12  9.3938414159768937e-12  5.8593489099712441e-12  -3.0349249095782944e-12  -9.4882803892906237e-12  -8.5867863829265906e-12  -3.4189382387936206e-12  1.4354264664807415e-13  5.6161060796965499e-13  1.4764595339239579e-13  1.2180972796993370e-14  2.5843632313179038e-14  1.7250452723051117e-12  1.1419630997543161e-12  1.0118718706415020e-12  1.1615235769116559e-12  1.2852946067802457e-12  7.1711665428994290e-13  -7.2245709350189476e-13  -1.5116910902983450e-12  7.6443122048457361e-13  5.8694264492405706e-12  9.0740893932869877e-12  5.6112096096415333e-12  -2.7999006397163705e-12  -8.8588348778004160e-12  -8.0607406340338602e-12  -3.3197971407838881e-12  -3.1265666889649902e-14  4.4082996589872583e-13  1.8119204921841699e-13  7.1244766859287915e-14  4.7596023388285892e-14  1.9983466073290023e-12  1.3436259446314723e-12  1.1650309074878195e-12  1.2852946067802356e-12  1.4003763950190104e-12  8.5722015492532523e-13  -5.1581589911021637e-13  -1.2373369344622441e-12  1.0145621002785358e-12  5.9503019132660271e-12  8.9328782390373810e-12  5.3694141379547020e-12  -2.9732456215991850e-12  -8.9406251335431586e-12  -8.1664376617943915e-12  -3.5133893702808933e-12  -2.3452707007282193e-13  3.3055835419192497e-13  1.6176471719006364e-13  6.2778423615177032e-14  2.8898090386982790e-14  1.0486832162598220e-12  6.6605167789063569e-13  5.7461251630962913e-13  7.1711665428989231e-13  8.5722015492529584e-13  3.5461729072683228e-13  -9.8607341489649169e-13  -1.7303655714752860e-12  4.0302896086579666e-13  5.1369650293180933e-12  7.9240658758217399e-12  4.2869805823107037e-12  -3.9668118745463294e-12  -9.7505706994347773e-12  -8.7902938854712005e-12  -3.9772283786719944e-12  -5.4743638449285766e-13  1.5463885798981299e-13  7.7033733322708082e-14  1.1317736370067982e-14  -7.0433568049318518e-15  -1.5264735054292846e-12  -1.1907308063364220e-12  -9.8411788338698824e-13  -7.2245709350195938e-13  -5.1581589911024464e-13  -9.8607341489648724e-13  -2.3680956409308417e-12  -3.2584353934224110e-12  -1.3417417002156216e-12  3.2126366923114697e-12  5.9858504527049968e-12  2.5673252132843831e-12  -5.2812472109249616e-12  -1.0603613827411030e-11  -9.2528694596511048e-12  -4.1756234510832785e-12  -5.9650572580488067e-13  1.7312162502180399e-13  1.0985877848713919e-13  3.0418666200939267e-14  3.9262869070160389e-15  -3.1785391220199286e-12  -2.3590247727482836e-12  -1.9113640133259054e-12  -1.5116910902983819e-12  -1.2373369344622387e-12  -1.7303655714752567e-12  -3.2584353934223868e-12  -4.3792756628875804e-12  -2.6310071561023776e-12  2.0013487408384842e-12  5.1890650765497352e-12  2.4360699609778707e-12  -4.7161455435056787e-12  -9.5363372895005405e-12  -7.9887666296177674e-12  -2.9886440915807130e-12  3.5421432412457774e-13  8.4557007102231002e-13  5.3681769596546111e-13  2.7657262451512015e-13  1.5138924933683369e-13  3.9836900360809658e-13  3.0420097351078724e-13  4.1697864130181714e-13  7.6443122048457382e-13  1.0145621002785723e-12  4.0302896086584549e-13  -1.3417417002155915e-12  -2.6310071561023716e-12  -7.6616900288960329e-13  4.4121399937995561e-12  8.4634369768448131e-12  6.5434388474651183e-12  -1.8532774402755927e-13  -5.1759856712923927e-12  -4.3056413581764964e-12  -2.2852791329894241e-13  2.2136912109801719e-12  1.9888838004700628e-12  1.1892163615643589e-12  6.3073836711265410e-13  3.5154744119498776e-13  9.2615481132215377e-12  6.7258255020357057e-12  5.8532237689083158e-12  5.8694264492405884e-12  5.9503019132660740e-12  5.1369650293181377e-12  3.2126366923114811e-12  2.0013487408384669e-12  4.4121399937995642e-12  1.0524664433549241e-11  1.5452689413206608e-11  1.3782231492194874e-11  6.3639152575358911e-12  -1.0751251165359324e-13  -1.0240961384032088e-12  1.4722213021662195e-12  2.8305605599392200e-12  2.0375305275032889e-12  1.0378348709212916e-12  4.6858884868869575e-13  2.1362230942830501e-13  1.5630168095968980e-11  1.1042220337621097e-11  9.3938414159768920e-12  9.0740893932870184e-12  8.9328782390374343e-12  7.9240658758217706e-12  5.9858504527049855e-12  5.1890650765497102e-12  8.4634369768448244e-12  1.5452689413206650e-11  2.0542318345898551e-11  1.7811998629037686e-11  8.2546303666405698e-12  -6.9466658293452459e-13  -3.5628832267399297e-12  -1.9937599450494817e-12  -5.7184283200915706e-13  -6.9454076220745304e-13  -8.5098369536479205e-13  -6.9774888056418729e-13  -5.1904277620387532e-13  1.0781389365055196e-11  7.0159127359764126e-12  5.8593489099712764e-12  5.6112096096415866e-12  5.3694141379547625e-12  4.2869805823107247e-12  2.5673252132843637e-12  2.4360699609778569e-12  6.5434388474651636e-12  1.3782231492194942e-11  1.7811998629037715e-11  1.2694730552770860e-11  3.1750490544155577e-13  -1.0609392728763504e-11  -1.3775872996494682e-11  -1.0866374326136315e-11  -7.1882609567425560e-12  -4.9962744597689281e-12  -3.3314731094912730e-12  -2.0019894912919051e-12  -1.2026567699635899e-12  -3.6314152793043191e-12  -3.5252659841015285e-12  -3.0349249095782217e-12  -2.7999006397163171e-12  -2.9732456215991535e-12  -3.9668118745463221e-12  -5.2812472109249826e-12  -4.7161455435056747e-12  -1.8532774402750798e-13  6.3639152575359388e-12  8.2546303666405795e-12  3.1750490544150892e-13  -1.3990177234615890e-11  -2.4654430386115530e-11  -2.5233015839936489e-11  -1.8449946359243157e-11  -1.1039756456968008e-11  -6.2223838810885673e-12  -3.2190467307614901e-12  -1.4713272936416571e-12  -6.0688937839926399e-13  -1.5567879167930280e-11  -1.1371480543227976e-11  -9.4882803892905688e-12  -8.8588348778003934e-12  -8.9406251335431537e-12  -9.7505706994347870e-12  -1.0603613827411043e-11  -9.5363372895005276e-12  -5.1759856712923547e-12  -1.0751251165358517e-13  -6.9466658293455125e-13  -1.0609392728763548e-11  -2.4654430386115543e-11  -3.2222752236917218e-11  -2.7966680043916209e-11  -1.6614240162053109e-11  -6.4723499117202162e-12  -1.0988344183068194e-12  9.9992184284872543e-13  1.3949683501700867e-12  1.2768588829297419e-12  -1.5847111147904606e-11  -1.0435822878038653e-11  -8.5867863829265809e-12  -8.0607406340338747e-12  -8.1664376617944076e-12  -8.7902938854712070e-12  -9.2528694596511032e-12  -7.9887666296177545e-12  -4.3056413581764834e-12  -1.0240961384032177e-12  -3.5628832267399624e-12  -1.3775872996494718e-11  -2.5233015839936499e-11  -2.7966680043916206e-11  -1.8895809981421865e-11  -5.0332832260501449e-12  4.5247761891538538e-12  7.1561652074233763e-12  6.0319868291725218e-12  3.9408592163750926e-12  2.4186929928712183e-12  -7.5802702442663916e-12  -4.1365936059495663e-12  -3.4189382387936371e-12  -3.3197971407839123e-12  -3.5133893702809046e-12  -3.9772283786719927e-12  -4.1756234510832753e-12  -2.9886440915807114e-12  -2.2852791329894342e-13  1.4722213021662064e-12  -1.9937599450495059e-12  -1.0866374326136330e-11  -1.8449946359243144e-11  -1.6614240162053109e-11  -5.0332832260501506e-12  7.7196086945566981e-12  1.3265193125632827e-11  1.1203305377184086e-11  6.6947773467092590e-12  3.0716067915532709e-12  1.1174932208524800e-12  -2.4938339149648994e-13  4.0135348436573682e-13  1.4354264664805476e-13  -3.1265666889667067e-14  -2.3452707007282556e-13  -5.4743638449285604e-13  -5.9650572580488329e-13  3.5421432412457501e-13  2.2136912109801690e-12  2.8305605599392111e-12  -5.7184283200916736e-13  -7.1882609567425512e-12  -1.1039756456967995e-11  -6.4723499117202186e-12  4.5247761891538433e-12  1.3265193125632827e-11  1.3585591912825379e-11  7.8058446149230415e-12  2.2992308486363311e-12  -4.3332429954626298e-13  -1.2405844186573926e-12  1.7030486313600957e-12  9.6217326014692783e-13  5.6161060796964126e-13  4.4082996589871568e-13  3.3055835419192518e-13  1.5463885798981473e-13  1.7312162502180349e-13  8.4557007102230880e-13  1.9888838004700632e-12  2.0375305275032836e-12  -6.9454076220746051e-13  -4.9962744597689249e-12  -6.2223838810885584e-12  -1.0988344183068214e-12  7.1561652074233675e-12  1.1203305377184088e-11  7.8058446149230447e-12  1.3212248919638881e-12  -2.2695024477848989e-12  -2.5317148758884601e-12  -1.7328888791174079e-12  8.6909898276525011e-13  2.3858748021768380e-13  1.4764595339238719e-13  1.8119204921841268e-13  1.6176471719006541e-13  7.7033733322710631e-14  1.0985877848713870e-13  5.3681769596546050e-13  1.1892163615643585e-12  1.0378348709212885e-12  -8.5098369536479558e-13  -3.3314731094912702e-12  -3.2190467307614836e-12  9.9992184284872200e-13  6.0319868291725145e-12  6.6947773467092574e-12  2.2992308486363319e-12  -2.2695024477848989e-12  -2.9381977087128243e-12  -1.4551323315141053e-12  -2.3589715382655297e-13  1.1147264641252770e-13  -7.1828769241485503e-14  1.2180972796988517e-14  7.1244766859287209e-14  6.2778423615179721e-14  1.1317736370069989e-14  3.0418666200938276e-14  2.7657262451511949e-13  6.3073836711265380e-13  4.6858884868869453e-13  -6.9774888056418840e-13  -2.0019894912919027e-12  -1.4713272936416529e-12  1.3949683501700863e-12  3.9408592163750877e-12  3.0716067915532701e-12  -4.3332429954626233e-13  -2.5317148758884593e-12  -1.4551323315141047e-12  4.9031882748246189e-14  5.1641217161377749e-13  -6.1564546546807160e-14  -6.4839325102789466e-14  2.5843632313176665e-14  4.7596023388287015e-14  2.8898090386985453e-14  -7.0433568049308641e-15  3.9262869070145243e-15  1.5138924933683321e-13  3.5154744119498786e-13  2.1362230942830450e-13  -5.1904277620387592e-13  -1.2026567699635883e-12  -6.0688937839926146e-13  1.2768588829297415e-12  2.4186929928712151e-12  1.1174932208524804e-12  -1.2405844186573916e-12  -1.7328888791174067e-12  -2.3589715382655272e-13  5.1641217161377749e-13  2.3507695988472623e-13  -1.4622209600361507e-11  -1.0298964759440284e-11  -8.8940579920197195e-12  -8.4446966862581283e-12  -9.0094151362433400e-12  -1.0740504408221854e-11  -1.1593366233771642e-11  -7.5004623299983239e-12  1.9042334761557509e-12  7.3844335570081390e-12  -3.7634546240490847e-12  -3.0194899235866473e-11  -5.0241808324888009e-11  -4.2479293883501755e-11  -1.1354623237656833e-11  1.6595051163212366e-11  2.2398956677461464e-11  1.2046060156607046e-11  2.4935352901051124e-12  -6.3115542299833893e-13  -6.7654596903979450e-13  -1.0298964759440306e-11  -6.4336137391077659e-12  -5.3481527026839995e-12  -5.0257897061633385e-12  -5.3719993743202003e-12  -6.5057441279722741e-12  -7.1428942315255278e-12  -4.5705923350432453e-12  1.5903641529572608e-12  5.2698793283513075e-12  -2.0480341541912972e-12  -1.9344929217870601e-11  -3.1858152318974202e-11  -2.5632869939841977e-11  -4.9889604296270533e-12  1.1579353902968291e-11  1.2892703584649759e-11  5.3536810653418029e-12  4.1383006417556177e-13  -4.0480867547234599e-13  -8.2879763654564942e-14  -8.8940579920197518e-12  -5.3481527026839954e-12  -4.4049081812477285e-12  -4.1586026866432105e-12  -4.4667041475430029e-12  -5.4013607085829560e-12  -5.8820478710084484e-12  -3.6911727641169542e-12  1.3922429282082495e-12  4.2724987162138950e-12  -1.9946161577377827e-12  -1.6285557694025346e-11  -2.6241544321123522e-11  -2.0653475365178615e-11  -3.6818726652106808e-12  9.3189929884011896e-12  9.8633726697155402e-12  3.9295018303780121e-12  5.9037871953574961e-13  9.0002458710567679e-14  1.5038793169291740e-13  -8.4446966862581477e-12  -5.0257897061633118e-12  -4.1586026866432097e-12  -3.9495133343039798e-12  -4.2508203748779013e-12  -5.1148293306099970e-12  -5.5113332616296816e-12  -3.3947864008892089e-12  1.3443092376289238e-12  3.8779117266796486e-12  -2.1817792350460370e-12  -1.5580353400812921e-11  -2.4727280202528871e-11  -1.9368344903875294e-11  -3.5907865452683584e-12  8.3843233744630434e-12  8.9398730714469819e-12  3.7207234913554556e-12  8.7022862476204364e-13  2.6783067334457765e-13  1.4107547628118978e-13  -9.0094151362433352e-12  -5.3719993743201979e-12  -4.4667041475430514e-12  -4.2508203748779554e-12  -4.5366618094567149e-12  -5.3640508513933159e-12  -5.7241076089858578e-12  -3.6405407289069770e-12  9.4138035569779977e-13  3.2764577433268766e-12  -2.8079823799566969e-12  -1.5958067737659532e-11  -2.4807358920304599e-11  -1.9433849508041604e-11  -3.9246950985125358e-12  7.8620207277385544e-12  8.5641875607988214e-12  3.6610593377071617e-12  9.6557789603803389e-13  2.7326389047521767e-13  9.2095330102087766e-14  -1.0740504408221870e-11  -6.5057441279723282e-12  -5.4013607085830570e-12  -5.1148293306100665e-12  -5.3640508513933216e-12  -6.1721516348678077e-12  -6.5496894393725025e-12  -4.5473273970403315e-12  -1.0439195222211228e-13  2.1098672844193559e-12  -3.9558721458224417e-12  -1.6891844019404598e-11  -2.5428491901328273e-11  -1.9812079248838503e-11  -4.1878146352528996e-12  7.6755586646994418e-12  8.4950109265397219e-12  3.7056982065884266e-12  1.0349252603234632e-12  2.8049163285685361e-13  7.9529719524490502e-14  -1.1593366233771733e-11  -7.1428942315256247e-12  -5.8820478710085324e-12  -5.5113332616296840e-12  -5.7241076089857997e-12  -6.5496894393724524e-12  -7.0114322070108959e-12  -5.1339099922849578e-12  -7.7266898669227287e-13  1.5108026359370916e-12  -4.2754126700849891e-12  -1.6772666179382218e-11  -2.4866116361526231e-11  -1.8965343161761509e-11  -3.2761227580506512e-12  8.4921044225592682e-12  9.1502756372548007e-12  4.1864750949343562e-12  1.3452504196081213e-12  4.4418794037188735e-13  1.6064175444845605e-13  -7.5004623299984580e-12  -4.5705923350433236e-12  -3.6911727641169591e-12  -3.3947864008891273e-12  -3.6405407289068671e-12  -4.5473273970402588e-12  -5.1339099922849360e-12  -3.3255430643612236e-12  1.1657557571636507e-12  3.8499229048985029e-12  -1.3592809644012538e-12  -1.3341667357183533e-11  -2.1231795950626430e-11  -1.5552619695139368e-11  -4.3318940740910173e-13  1.0614013073008043e-11  1.0590746218959082e-11  5.0884702292100474e-12  1.8694827279081584e-12  7.2651888687567481e-13  3.0501381439523785e-13  1.9042334761556414e-12  1.5903641529572297e-12  1.3922429282083018e-12  1.3443092376290318e-12  9.4138035569790640e-13  -1.0439195222205478e-13  -7.7266898669227156e-13  1.1657557571636334e-12  6.1080709367314882e-12  9.4545248086473218e-12  4.7682299729787189e-12  -7.2296030674638442e-12  -1.5855602986116774e-11  -1.1476579830965494e-11  2.1654591904044019e-12  1.1944440907672949e-11  1.1068446727726424e-11  5.1257896763013501e-12  1.7536982861761010e-12  6.0415590055436205e-13  2.2760782411248406e-13  7.3844335570081002e-12  5.2698793283513236e-12  4.2724987162139661e-12  3.8779117266797495e-12  3.2764577433269582e-12  2.1098672844193777e-12  1.5108026359370494e-12  3.8499229048984584e-12  9.4545248086473202e-12  1.3316260361675209e-11  8.4348526169992709e-12  -4.7780954484878494e-12  -1.5409757111346999e-11  -1.3159045673097663e-11  -1.0635341620398301e-12  8.1130141834178883e-12  7.4955447445379036e-12  2.3125009094670722e-12  -1.8231779706986951e-13  -5.8293899405344560e-13  -4.1623598719805278e-13  -3.7634546240490120e-12  -2.0480341541912128e-12  -1.9946161577376894e-12  -2.1817792350459377e-12  -2.8079823799566311e-12  -3.9558721458224594e-12  -4.2754126700850545e-12  -1.3592809644012861e-12  4.7682299729787415e-12  8.4348526169993113e-12  2.1459214043863540e-12  -1.3483737810271768e-11  -2.6593002300396504e-11  -2.5734999467753516e-11  -1.3307534991948139e-11  -2.2536676930524845e-12  -2.0828662894003138e-13  -2.7729116614528846e-12  -3.2083231821185488e-12  -2.2319613537966290e-12  -1.2374099455542142e-12  -3.0194899235866259e-11  -1.9344929217870449e-11  -1.6285557694025233e-11  -1.5580353400812841e-11  -1.5958067737659512e-11  -1.6891844019404653e-11  -1.6772666179382279e-11  -1.3341667357183525e-11  -7.2296030674637755e-12  -4.7780954484878179e-12  -1.3483737810271821e-11  -3.1684333020093627e-11  -4.5918881737814813e-11  -4.3654362516457140e-11  -2.7458105998052478e-11  -1.1534908620320436e-11  -5.0320228559344916e-12  -4.5001993512084828e-12  -3.3238406922768247e-12  -1.7992055661783894e-12  -7.9150612777558749e-13  -5.0241808324887693e-11  -3.1858152318974021e-11  -2.6241544321123428e-11  -2.4727280202528874e-11  -2.4807358920304657e-11  -2.5428491901328357e-11  -2.4866116361526286e-11  -2.1231795950626413e-11  -1.5855602986116729e-11  -1.5409757111347022e-11  -2.6593002300396572e-11  -4.5918881737814903e-11  -5.8279047732706082e-11  -5.1015487455169963e-11  -2.8349740975435812e-11  -6.8638243598043911e-12  2.6427358397629647e-12  3.4347122068649965e-12  3.0939556657113395e-12  2.5526370099377941e-12  1.7459183635774437e-12  -4.2479293883501496e-11  -2.5632869939841873e-11  -2.0653475365178631e-11  -1.9368344903875387e-11  -1.9433849508041705e-11  -1.9812079248838555e-11  -1.8965343161761528e-11  -1.5552619695139339e-11  -1.1476579830965476e-11  -1.3159045673097714e-11  -2.5734999467753584e-11  -4.3654362516457185e-11  -5.1015487455169911e-11  -3.6726895193663496e-11  -8.1518515239862327e-12  1.5470533205491836e-11  2.2776753975861646e-11  1.8567103608493292e-11  1.2736479382027271e-11  7.8470071062901448e-12  4.2569194349249093e-12  -1.1354623237656733e-11  -4.9889604296270565e-12  -3.6818726652107705e-12  -3.5907865452684606e-12  -3.9246950985126109e-12  -4.1878146352529214e-12  -3.2761227580506342e-12  -4.3318940740907831e-13  2.1654591904043970e-12  -1.0635341620398820e-12  -1.3307534991948191e-11  -2.7458105998052491e-11  -2.8349740975435789e-11  -8.1518515239862392e-12  2.2071072582487985e-11  4.1600077769397571e-11  4.0759854219363862e-11  2.7831860427310325e-11  1.5618979830585452e-11  7.5063273933677786e-12  2.9881142459653352e-12  1.6595051163212356e-11  1.1579353902968243e-11  9.3189929884011088e-12  8.3843233744629949e-12  7.8620207277385366e-12  7.6755586646994321e-12  8.4921044225592455e-12  1.0614013073008030e-11  1.1944440907672940e-11  8.1130141834178673e-12  -2.2536676930525104e-12  -1.1534908620320425e-11  -6.8638243598043378e-12  1.5470533205491807e-11  4.1600077769397558e-11  5.1754886142646177e-11  4.0414291392253216e-11  2.0266371709690147e-11  5.9457223947432377e-12  -5.3158326906749358e-13  -2.1724867486680428e-12  2.2398956677461438e-11  1.2892703584649717e-11  9.8633726697154918e-12  8.9398730714469690e-12  8.5641875607988311e-12  8.4950109265397154e-12  9.1502756372547765e-12  1.0590746218959075e-11  1.1068446727726422e-11  7.4955447445378955e-12  -2.0828662894003800e-13  -5.0320228559344706e-12  2.6427358397629975e-12  2.2776753975861637e-11  4.0759854219363849e-11  4.0414291392253229e-11  2.1718317536722149e-11  7.3534883246439850e-13  -8.8294930946762251e-12  -8.9537361566450169e-12  -5.7688164353644866e-12  1.2046060156607031e-11  5.3536810653417738e-12  3.9295018303779822e-12  3.7207234913554548e-12  3.6610593377071754e-12  3.7056982065884330e-12  4.1864750949343538e-12  5.0884702292100490e-12  5.1257896763013533e-12  2.3125009094670650e-12  -2.7729116614528878e-12  -4.5001993512084594e-12  3.4347122068650268e-12  1.8567103608493279e-11  2.783186042