<?xml version="1.0"?>
<VTKFile type="UnstructuredGrid"  version="0.1"  >
<UnstructuredGrid>
<Piece  NumberOfPoints="9261" NumberOfCells="48000">
<Points>
<DataArray  type="Float64"  NumberOfComponents="3"  format="ascii">-2 -2 -2  -1.8 -2 -2  -1.6 -2 -2  -1.4 -2 -2  -1.2 -2 -2  -1 -2 -2  -0.8 -2 -2  -0.6000000000000001 -2 -2  -0.3999999999999999 -2 -2  -0.2 -2 -2  0 -2 -2  0.2000000000000002 -2 -2  0.3999999999999999 -2 -2  0.6000000000000001 -2 -2  0.7999999999999998 -2 -2  1 -2 -2  1.2 -2 -2  1.4 -2 -2  1.6 -2 -2  1.8 -2 -2  2 -2 -2  -2 -1.8 -2  -1.8 -1.8 -2  -1.6 -1.8 -2  -1.4 -1.8 -2  -1.2 -1.8 -2  -1 -1.8 -2  -0.8 -1.8 -2  -0.6000000000000001 -1.8 -2  -0.3999999999999999 -1.8 -2  -0.2 -1.8 -2  0 -1.8 -2  0.2000000000000002 -1.8 -2  0.3999999999999999 -1.8 -2  0.6000000000000001 -1.8 -2  0.7999999999999998 -1.8 -2  1 -1.8 -2  1.2 -1.8 -2  1.4 -1.8 -2  1.6 -1.8 -2  1.8 -1.8 -2  2 -1.8 -2  -2 -1.6 -2  -1.8 -1.6 -2  -1.6 -1.6 -2  -1.4 -1.6 -2  -1.2 -1.6 -2  -1 -1.6 -2  -0.8 -1.6 -2  -0.6000000000000001 -1.6 -2  -0.3999999999999999 -1.6 -2  -0.2 -1.6 -2  0 -1.6 -2  0.2000000000000002 -1.6 -2  0.3999999999999999 -1.6 -2  0.6000000000000001 -1.6 -2  0.7999999999999998 -1.6 -2  1 -1.6 -2  1.2 -1.6 -2  1.4 -1.6 -2  1.6 -1.6 -2  1.8 -1.6 -2  2 -1.6 -2  -2 -1.4 -2  -1.8 -1.4 -2  -1.6 -1.4 -2  -1.4 -1.4 -2  -1.2 -1.4 -2  -1 -1.4 -2  -0.8 -1.4 -2  -0.6000000000000001 -1.4 -2  -0.3999999999999999 -1.4 -2  -0.2 -1.4 -2  0 -1.4 -2  0.2000000000000002 -1.4 -2  0.3999999999999999 -1.4 -2  0.6000000000000001 -1.4 -2  0.7999999999999998 -1.4 -2  1 -1.4 -2  1.2 -1.4 -2  1.4 -1.4 -2  1.6 -1.4 -2  1.8 -1.4 -2  2 -1.4 -2  -2 -1.2 -2  -1.8 -1.2 -2  -1.6 -1.2 -2  -1.4 -1.2 -2  -1.2 -1.2 -2  -1 -1.2 -2  -0.8 -1.2 -2  -0.6000000000000001 -1.2 -2  -0.3999999999999999 -1.2 -2  -0.2 -1.2 -2  0 -1.2 -2  0.2000000000000002 -1.2 -2  0.3999999999999999 -1.2 -2  0.6000000000000001 -1.2 -2  0.7999999999999998 -1.2 -2  1 -1.2 -2  1.2 -1.2 -2  1.4 -1.2 -2  1.6 -1.2 -2  1.8 -1.2 -2  2 -1.2 -2  -2 -1 -2  -1.8 -1 -2  -1.6 -1 -2  -1.4 -1 -2  -1.2 -1 -2  -1 -1 -2  -0.8 -1 -2  -0.6000000000000001 -1 -2  -0.3999999999999999 -1 -2  -0.2 -1 -2  0 -1 -2  0.2000000000000002 -1 -2  0.3999999999999999 -1 -2  0.6000000000000001 -1 -2  0.7999999999999998 -1 -2  1 -1 -2  1.2 -1 -2  1.4 -1 -2  1.6 -1 -2  1.8 -1 -2  2 -1 -2  -2 -0.8 -2  -1.8 -0.8 -2  -1.6 -0.8 -2  -1.4 -0.8 -2  -1.2 -0.8 -2  -1 -0.8 -2  -0.8 -0.8 -2  -0.6000000000000001 -0.8 -2  -0.3999999999999999 -0.8 -2  -0.2 -0.8 -2  0 -0.8 -2  0.2000000000000002 -0.8 -2  0.3999999999999999 -0.8 -2  0.6000000000000001 -0.8 -2  0.7999999999999998 -0.8 -2  1 -0.8 -2  1.2 -0.8 -2  1.4 -0.8 -2  1.6 -0.8 -2  1.8 -0.8 -2  2 -0.8 -2  -2 -0.6000000000000001 -2  -1.8 -0.6000000000000001 -2  -1.6 -0.6000000000000001 -2  -1.4 -0.6000000000000001 -2  -1.2 -0.6000000000000001 -2  -1 -0.6000000000000001 -2  -0.8 -0.6000000000000001 -2  -0.6000000000000001 -0.6000000000000001 -2  -0.3999999999999999 -0.6000000000000001 -2  -0.2 -0.6000000000000001 -2  0 -0.6000000000000001 -2  0.2000000000000002 -0.6000000000000001 -2  0.3999999999999999 -0.6000000000000001 -2  0.6000000000000001 -0.6000000000000001 -2  0.7999999999999998 -0.6000000000000001 -2  1 -0.6000000000000001 -2  1.2 -0.6000000000000001 -2  1.4 -0.6000000000000001 -2  1.6 -0.6000000000000001 -2  1.8 -0.6000000000000001 -2  2 -0.6000000000000001 -2  -2 -0.3999999999999999 -2  -1.8 -0.3999999999999999 -2  -1.6 -0.3999999999999999 -2  -1.4 -0.3999999999999999 -2  -1.2 -0.3999999999999999 -2  -1 -0.3999999999999999 -2  -0.8 -0.3999999999999999 -2  -0.6000000000000001 -0.3999999999999999 -2  -0.3999999999999999 -0.3999999999999999 -2  -0.2 -0.3999999999999999 -2  0 -0.3999999999999999 -2  0.2000000000000002 -0.3999999999999999 -2  0.3999999999999999 -0.3999999999999999 -2  0.6000000000000001 -0.3999999999999999 -2  0.7999999999999998 -0.3999999999999999 -2  1 -0.3999999999999999 -2  1.2 -0.3999999999999999 -2  1.4 -0.3999999999999999 -2  1.6 -0.3999999999999999 -2  1.8 -0.3999999999999999 -2  2 -0.3999999999999999 -2  -2 -0.2 -2  -1.8 -0.2 -2  -1.6 -0.2 -2  -1.4 -0.2 -2  -1.2 -0.2 -2  -1 -0.2 -2  -0.8 -0.2 -2  -0.6000000000000001 -0.2 -2  -0.3999999999999999 -0.2 -2  -0.2 -0.2 -2  0 -0.2 -2  0.2000000000000002 -0.2 -2  0.3999999999999999 -0.2 -2  0.6000000000000001 -0.2 -2  0.7999999999999998 -0.2 -2  1 -0.2 -2  1.2 -0.2 -2  1.4 -0.2 -2  1.6 -0.2 -2  1.8 -0.2 -2  2 -0.2 -2  -2 0 -2  -1.8 0 -2  -1.6 0 -2  -1.4 0 -2  -1.2 0 -2  -1 0 -2  -0.8 0 -2  -0.6000000000000001 0 -2  -0.3999999999999999 0 -2  -0.2 0 -2  0 0 -2  0.2000000000000002 0 -2  0.3999999999999999 0 -2  0.6000000000000001 0 -2  0.7999999999999998 0 -2  1 0 -2  1.2 0 -2  1.4 0 -2  1.6 0 -2  1.8 0 -2  2 0 -2  -2 0.2000000000000002 -2  -1.8 0.2000000000000002 -2  -1.6 0.2000000000000002 -2  -1.4 0.2000000000000002 -2  -1.2 0.2000000000000002 -2  -1 0.2000000000000002 -2  -0.8 0.2000000000000002 -2  -0.6000000000000001 0.2000000000000002 -2  -0.3999999999999999 0.2000000000000002 -2  -0.2 0.2000000000000002 -2  0 0.2000000000000002 -2  0.2000000000000002 0.2000000000000002 -2  0.3999999999999999 0.2000000000000002 -2  0.6000000000000001 0.2000000000000002 -2  0.7999999999999998 0.2000000000000002 -2  1 0.2000000000000002 -2  1.2 0.2000000000000002 -2  1.4 0.2000000000000002 -2  1.6 0.2000000000000002 -2  1.8 0.2000000000000002 -2  2 0.2000000000000002 -2  -2 0.3999999999999999 -2  -1.8 0.3999999999999999 -2  -1.6 0.3999999999999999 -2  -1.4 0.3999999999999999 -2  -1.2 0.3999999999999999 -2  -1 0.3999999999999999 -2  -0.8 0.3999999999999999 -2  -0.6000000000000001 0.3999999999999999 -2  -0.3999999999999999 0.3999999999999999 -2  -0.2 0.3999999999999999 -2  0 0.3999999999999999 -2  0.2000000000000002 0.3999999999999999 -2  0.3999999999999999 0.3999999999999999 -2  0.6000000000000001 0.3999999999999999 -2  0.7999999999999998 0.3999999999999999 -2  1 0.3999999999999999 -2  1.2 0.3999999999999999 -2  1.4 0.3999999999999999 -2  1.6 0.3999999999999999 -2  1.8 0.3999999999999999 -2  2 0.3999999999999999 -2  -2 0.6000000000000001 -2  -1.8 0.6000000000000001 -2  -1.6 0.6000000000000001 -2  -1.4 0.6000000000000001 -2  -1.2 0.6000000000000001 -2  -1 0.6000000000000001 -2  -0.8 0.6000000000000001 -2  -0.6000000000000001 0.6000000000000001 -2  -0.3999999999999999 0.6000000000000001 -2  -0.2 0.6000000000000001 -2  0 0.6000000000000001 -2  0.2000000000000002 0.6000000000000001 -2  0.3999999999999999 0.6000000000000001 -2  0.6000000000000001 0.6000000000000001 -2  0.7999999999999998 0.6000000000000001 -2  1 0.6000000000000001 -2  1.2 0.6000000000000001 -2  1.4 0.6000000000000001 -2  1.6 0.6000000000000001 -2  1.8 0.6000000000000001 -2  2 0.6000000000000001 -2  -2 0.7999999999999998 -2  -1.8 0.7999999999999998 -2  -1.6 0.7999999999999998 -2  -1.4 0.7999999999999998 -2  -1.2 0.7999999999999998 -2  -1 0.7999999999999998 -2  -0.8 0.7999999999999998 -2  -0.6000000000000001 0.7999999999999998 -2  -0.3999999999999999 0.7999999999999998 -2  -0.2 0.7999999999999998 -2  0 0.7999999999999998 -2  0.2000000000000002 0.7999999999999998 -2  0.3999999999999999 0.7999999999999998 -2  0.6000000000000001 0.7999999999999998 -2  0.7999999999999998 0.7999999999999998 -2  1 0.7999999999999998 -2  1.2 0.7999999999999998 -2  1.4 0.7999999999999998 -2  1.6 0.7999999999999998 -2  1.8 0.7999999999999998 -2  2 0.7999999999999998 -2  -2 1 -2  -1.8 1 -2  -1.6 1 -2  -1.4 1 -2  -1.2 1 -2  -1 1 -2  -0.8 1 -2  -0.6000000000000001 1 -2  -0.3999999999999999 1 -2  -0.2 1 -2  0 1 -2  0.2000000000000002 1 -2  0.3999999999999999 1 -2  0.6000000000000001 1 -2  0.7999999999999998 1 -2  1 1 -2  1.2 1 -2  1.4 1 -2  1.6 1 -2  1.8 1 -2  2 1 -2  -2 1.2 -2  -1.8 1.2 -2  -1.6 1.2 -2  -1.4 1.2 -2  -1.2 1.2 -2  -1 1.2 -2  -0.8 1.2 -2  -0.6000000000000001 1.2 -2  -0.3999999999999999 1.2 -2  -0.2 1.2 -2  0 1.2 -2  0.2000000000000002 1.2 -2  0.3999999999999999 1.2 -2  0.6000000000000001 1.2 -2  0.7999999999999998 1.2 -2  1 1.2 -2  1.2 1.2 -2  1.4 1.2 -2  1.6 1.2 -2  1.8 1.2 -2  2 1.2 -2  -2 1.4 -2  -1.8 1.4 -2  -1.6 1.4 -2  -1.4 1.4 -2  -1.2 1.4 -2  -1 1.4 -2  -0.8 1.4 -2  -0.6000000000000001 1.4 -2  -0.3999999999999999 1.4 -2  -0.2 1.4 -2  0 1.4 -2  0.2000000000000002 1.4 -2  0.3999999999999999 1.4 -2  0.6000000000000001 1.4 -2  0.7999999999999998 1.4 -2  1 1.4 -2  1.2 1.4 -2  1.4 1.4 -2  1.6 1.4 -2  1.8 1.4 -2  2 1.4 -2  -2 1.6 -2  -1.8 1.6 -2  -1.6 1.6 -2  -1.4 1.6 -2  -1.2 1.6 -2  -1 1.6 -2  -0.8 1.6 -2  -0.6000000000000001 1.6 -2  -0.3999999999999999 1.6 -2  -0.2 1.6 -2  0 1.6 -2  0.2000000000000002 1.6 -2  0.3999999999999999 1.6 -2  0.6000000000000001 1.6 -2  0.7999999999999998 1.6 -2  1 1.6 -2  1.2 1.6 -2  1.4 1.6 -2  1.6 1.6 -2  1.8 1.6 -2  2 1.6 -2  -2 1.8 -2  -1.8 1.8 -2  -1.6 1.8 -2  -1.4 1.8 -2  -1.2 1.8 -2  -1 1.8 -2  -0.8 1.8 -2  -0.6000000000000001 1.8 -2  -0.3999999999999999 1.8 -2  -0.2 1.8 -2  0 1.8 -2  0.2000000000000002 1.8 -2  0.3999999999999999 1.8 -2  0.6000000000000001 1.8 -2  0.7999999999999998 1.8 -2  1 1.8 -2  1.2 1.8 -2  1.4 1.8 -2  1.6 1.8 -2  1.8 1.8 -2  2 1.8 -2  -2 2 -2  -1.8 2 -2  -1.6 2 -2  -1.4 2 -2  -1.2 2 -2  -1 2 -2  -0.8 2 -2  -0.6000000000000001 2 -2  -0.3999999999999999 2 -2  -0.2 2 -2  0 2 -2  0.2000000000000002 2 -2  0.3999999999999999 2 -2  0.6000000000000001 2 -2  0.7999999999999998 2 -2  1 2 -2  1.2 2 -2  1.4 2 -2  1.6 2 -2  1.8 2 -2  2 2 -2  -2 -2 -1.8  -1.8 -2 -1.8  -1.6 -2 -1.8  -1.4 -2 -1.8  -1.2 -2 -1.8  -1 -2 -1.8  -0.8 -2 -1.8  -0.6000000000000001 -2 -1.8  -0.3999999999999999 -2 -1.8  -0.2 -2 -1.8  0 -2 -1.8  0.2000000000000002 -2 -1.8  0.3999999999999999 -2 -1.8  0.6000000000000001 -2 -1.8  0.7999999999999998 -2 -1.8  1 -2 -1.8  1.2 -2 -1.8  1.4 -2 -1.8  1.6 -2 -1.8  1.8 -2 -1.8  2 -2 -1.8  -2 -1.8 -1.8  -1.8 -1.8 -1.8  -1.6 -1.8 -1.8  -1.4 -1.8 -1.8  -1.2 -1.8 -1.8  -1 -1.8 -1.8  -0.8 -1.8 -1.8  -0.6000000000000001 -1.8 -1.8  -0.3999999999999999 -1.8 -1.8  -0.2 -1.8 -1.8  0 -1.8 -1.8  0.2000000000000002 -1.8 -1.8  0.3999999999999999 -1.8 -1.8  0.6000000000000001 -1.8 -1.8  0.7999999999999998 -1.8 -1.8  1 -1.8 -1.8  1.2 -1.8 -1.
[...]
<PointData  Scalars="uA"> 
<DataArray  type="Float64"  Name="uA"  format="ascii">3.8115465117905348e-13  3.4289176107704485e-13  3.8473170427518600e-13  4.6521996582645129e-13  2.1028237286018622e-13  -4.9355508766291183e-13  -6.9222845439770521e-13  7.9412493996115421e-13  2.9816310950961780e-12  2.9406354000043961e-12  -6.1343697022573719e-14  -2.8880248439297008e-12  -2.8824275850634944e-12  -1.1973588259812868e-12  -1.1527874075577372e-13  3.6894206350629514e-14  -6.7729625429627997e-15  -2.8664985995636043e-15  4.4203344017300238e-15  2.2332199970596768e-15  5.4489370982351573e-16  3.4289176107704495e-13  2.6358823395477385e-13  2.7608126402838167e-13  3.3266800885092867e-13  1.6612624597579353e-13  -3.2241510189265563e-13  -4.8115677144441705e-13  5.3535862451263196e-13  2.0635188676521007e-12  2.0414557035050535e-12  -3.6164021103874625e-14  -1.9366656217579338e-12  -1.8566588833404121e-12  -7.1503189984689598e-13  -6.4646088073371743e-14  3.2149740691891191e-15  -2.9970568404552165e-15  5.6215868209347218e-15  3.7786932253555018e-15  -1.0957563143825425e-16  -1.0298473337447869e-15  3.8473170427520493e-13  2.7608126402838914e-13  2.7431845874732901e-13  3.1433547072600116e-13  1.6223507411622715e-13  -2.4898183975450052e-13  -3.4819968003660726e-13  5.6068113887642999e-13  1.8588180976840890e-12  1.7764058104098928e-12  -6.2402481892504953e-14  -1.7019663885999036e-12  -1.6153703061803244e-12  -6.2155940120620522e-13  -5.1115529801733592e-14  2.0906480459770623e-14  1.5428095646348540e-14  9.7928011985808099e-15  2.8360492335270627e-15  -5.9348987078573867e-17  -2.1067325044330069e-16  4.6521996582648431e-13  3.3266800885093433e-13  3.1433547072599359e-13  3.4408059466117304e-13  1.9494504243987764e-13  -1.8747074525348627e-13  -2.5047296045087358e-13  6.4576284212317473e-13  1.8647844421306712e-12  1.7115112746280977e-12  -1.2171570680853029e-13  -1.7235252249281860e-12  -1.6376486195109726e-12  -6.6402587904746188e-13  -8.7323851000812534e-14  4.6913916269812632e-15  6.5121502279767389e-15  1.7123973919095860e-15  -1.2340023996529285e-15  -1.1299874125018033e-15  -4.2715006580923042e-16  2.1028237286019990e-13  1.6612624597578190e-13  1.6223507411620624e-13  1.9494504243986999e-13  5.6831732027131526e-14  -3.1028356038876437e-13  -3.7186161909473405e-13  4.9008127223051711e-13  1.6408389632938863e-12  1.4253900607769881e-12  -4.2157145679521115e-13  -1.9898713839589754e-12  -1.8519459940169753e-12  -8.2210284197991359e-13  -1.8971709962938418e-13  -5.4596561435575093e-14  -2.7792319883801104e-14  -1.8122963879689118e-14  -1.1151173110034666e-14  -5.7645392420459389e-15  -2.8936314089816439e-15  -4.9355508766293122e-13  -3.2241510189267906e-13  -2.4898183975451591e-13  -1.8747074525348188e-13  -3.1028356038875467e-13  -6.8490688736719104e-13  -7.9191662670791854e-13  -1.8995598224446394e-15  1.0943027154529129e-12  8.9068197298877529e-13  -8.6350149724130052e-13  -2.2914811710297182e-12  -2.0178060535771187e-12  -8.8945102461442953e-13  -2.0149181850984986e-13  -4.5095788730054101e-14  -1.6756688161146287e-14  -1.1559528970393561e-14  -8.4380483069920760e-15  -5.5216959050806529e-15  -3.4629237407862999e-15  -6.9222845439773651e-13  -4.8115677144443310e-13  -3.4819968003660363e-13  -2.5047296045085465e-13  -3.7186161909471921e-13  -7.9191662670791601e-13  -9.7687345972493954e-13  -2.3549829524179911e-13  9.1388483352780610e-13  8.8267506076777899e-13  -6.4232541765623028e-13  -1.8828744705679257e-12  -1.5293935701370515e-12  -4.3003552802470955e-13  1.6324471116515944e-13  2.0818303239331594e-13  1.4040762058743211e-13  7.6919661705680186e-14  3.7076953398040007e-14  1.5758262255680142e-14  6.9731174596579890e-15  7.9412493996113281e-13  5.3535862451263044e-13  5.6068113887644615e-13  6.4576284212319321e-13  4.9008127223052277e-13  -1.8995598224521494e-15  -2.3549829524180643e-13  5.7670498695823528e-13  1.9508893525242135e-12  2.2067183311353492e-12  8.6541184191294384e-13  -4.0917134381370505e-13  -2.9545730738987841e-13  4.6510552856666988e-13  7.3583036985692833e-13  5.3866635382264978e-13  3.1772873311568368e-13  1.6854050307582627e-13  8.4038308817074524e-14  3.9968112309169487e-14  2.0388259035656134e-14  2.9816310950961715e-12  2.0635188676521076e-12  1.8588180976841032e-12  1.8647844421306772e-12  1.6408389632938792e-12  1.0943027154528989e-12  9.1388483352779924e-13  1.9508893525242196e-12  3.6302704198728800e-12  4.0436976887010765e-12  2.5271454864248918e-12  7.6299849396095551e-13  2.7421482724221538e-13  5.4246025929165533e-13  5.4023181177170538e-13  2.6871646827546755e-13  8.8174620802085123e-14  1.5411815667660880e-14  -1.3928689026562385e-15  -8.5524806765966998e-16  1.0549895155753331e-16  2.9406354000044086e-12  2.0414557035050652e-12  1.7764058104099005e-12  1.7115112746280965e-12  1.4253900607769782e-12  8.9068197298876580e-13  8.8267506076778142e-13  2.2067183311353633e-12  4.0436976887010861e-12  4.2188591738705753e-12  2.0515428736441755e-12  -4.8305854753927797e-13  -1.4881784114700767e-12  -1.2988206886454641e-12  -1.0184068242997366e-12  -8.5220591628465082e-13  -6.1914902771124752e-13  -3.8616905017428930e-13  -2.1064432135573456e-13  -1.0303723174764832e-13  -5.2978682641601346e-14  -6.1343697022539489e-14  -3.6164021103860691e-14  -6.2402481892503489e-14  -1.2171570680853312e-13  -4.2157145679521681e-13  -8.6350149724129961e-13  -6.4232541765621806e-13  8.6541184191296343e-13  2.5271454864249043e-12  2.0515428736441702e-12  -9.3748785588315030e-13  -3.9369438027945673e-12  -4.7364654589526239e-12  -3.7889900982726329e-12  -2.5790875226922859e-12  -1.6471851261243707e-12  -9.3967277415820778e-13  -4.8027403626680188e-13  -2.2461735832389525e-13  -9.9750151884270068e-14  -4.6815407796986472e-14  -2.8880248439296676e-12  -1.9366656217579233e-12  -1.7019663885999071e-12  -1.7235252249281917e-12  -1.9898713839589734e-12  -2.2914811710297097e-12  -1.8828744705679111e-12  -4.0917134381369102e-13  7.6299849396096137e-13  -4.8305854753928635e-13  -3.9369438027945745e-12  -6.5986554783978886e-12  -6.3219441625845336e-12  -4.1080160348450772e-12  -1.9933008531248865e-12  -7.1579201687203725e-13  -8.3627159575243815e-14  1.2596073172843797e-13  1.3526608881282055e-13  8.8369607172636549e-14  5.5578113563902230e-14  -2.8824275850634782e-12  -1.8566588833404125e-12  -1.6153703061803316e-12  -1.6376486195109765e-12  -1.8519459940169708e-12  -2.0178060535771103e-12  -1.5293935701370432e-12  -2.9545730738987275e-13  2.7421482724221074e-13  -1.4881784114700892e-12  -4.7364654589526336e-12  -6.3219441625845384e-12  -4.6712630051486667e-12  -1.5726133432606562e-12  5.8524585517960586e-13  1.2845555297689939e-12  1.1681326995740431e-12  7.7848286819656061e-13  4.2582113445009652e-13  2.0270772691373104e-13  9.8524066676700201e-14  -1.1973588259812904e-12  -7.1503189984690395e-13  -6.2155940120621077e-13  -6.6402587904746208e-13  -8.2210284197990945e-13  -8.8945102461442589e-13  -4.3003552802470818e-13  4.6510552856666898e-13  5.4246025929164948e-13  -1.2988206886454706e-12  -3.7889900982726377e-12  -4.1080160348450748e-12  -1.5726133432606504e-12  1.4163402671250388e-12  2.6363028999605203e-12  2.2140791139608923e-12  1.3099708515496078e-12  5.8129293073797249e-13  1.8620964800457232e-13  3.0999518184786179e-14  -1.5159463968913532e-14  -1.1527874075578569e-13  -6.4646088073379303e-14  -5.1115529801734400e-14  -8.7323851000809051e-14  -1.8971709962938150e-13  -2.0149181850985021e-13  1.6324471116515825e-13  7.3583036985692792e-13  5.4023181177170195e-13  -1.0184068242997402e-12  -2.5790875226922887e-12  -1.9933008531248820e-12  5.8524585517961000e-13  2.6363028999605179e-12  2.6100883629757513e-12  1.3775244526672521e-12  3.1939256424873618e-13  -1.5901251748320458e-13  -2.3062623129587146e-13  -1.5862457911892771e-13  -9.4141947858123473e-14  3.6894206350618564e-14  3.2149740691849697e-15  2.0906480459772968e-14  4.6913916269850403e-15  -5.4596561435574342e-14  -4.5095788730056032e-14  2.0818303239331523e-13  5.3866635382264968e-13  2.6871646827546558e-13  -8.5220591628465273e-13  -1.6471851261243711e-12  -7.1579201687203503e-13  1.2845555297689949e-12  2.2140791139608907e-12  1.3775244526672525e-12  9.3451969840933993e-14  -4.9380073351008139e-13  -4.6113631395126181e-13  -2.4055981709337012e-13  -7.9236739820063445e-14  -8.6399187083944334e-15  -6.7729625429702592e-15  -2.9970568404567359e-15  1.5428095646351380e-14  6.5121502279791473e-15  -2.7792319883801672e-14  -1.6756688161148193e-14  1.4040762058743173e-13  3.1772873311568383e-13  8.8174620802084391e-14  -6.1914902771124782e-13  -9.3967277415820697e-13  -8.3627159575242654e-14  1.1681326995740437e-12  1.3099708515496074e-12  3.1939256424873674e-13  -4.9380073351008119e-13  -5.0948172778744059e-13  -2.0055256711127196e-13  1.0404665375843626e-14  6.4285119092841480e-14  5.5302408222917542e-14  -2.8664985995676401e-15  5.6215868209346097e-15  9.7928011985829099e-15  1.7123973919105381e-15  -1.8122963879690128e-14  -1.1559528970394765e-14  7.6919661705680414e-14  1.6854050307582642e-13  1.5411815667660438e-14  -3.8616905017428910e-13  -4.8027403626680128e-13  1.2596073172843883e-13  7.7848286819656040e-13  5.8129293073797239e-13  -1.5901251748320418e-13  -4.6113631395126161e-13  -2.0055256711127188e-13  4.7340561840029128e-14  8.8811035721195293e-14  4.1332387705928190e-14  3.3424081048370609e-15  4.4203344017282662e-15  3.7786932253558663e-15  2.8360492335282579e-15  -1.2340023996527512e-15  -1.1151173110035452e-14  -8.4380483069925303e-15  3.7076953398040373e-14  8.4038308817074562e-14  -1.3928689026565351e-15  -2.1064432135573439e-13  -2.2461735832389499e-13  1.3526608881282070e-13  4.2582113445009642e-13  1.8620964800457250e-13  -2.3062623129587090e-13  -2.4055981709337002e-13  1.0404665375843629e-14  8.8811035721195230e-14  3.4022835543622229e-14  -7.8113303368315329e-15  -1.4561778575214541e-14  2.2332199970590031e-15  -1.0957563143791011e-16  -5.9348987078010128e-17  -1.1299874125018831e-15  -5.7645392420463956e-15  -5.5216959050807814e-15  1.5758262255680407e-14  3.9968112309169449e-14  -8.5524806765988455e-16  -1.0303723174764821e-13  -9.9750151884269892e-14  8.8369607172636524e-14  2.0270772691373094e-13  3.0999518184786368e-14  -1.5862457911892751e-13  -7.9236739820063534e-14  6.4285119092841442e-14  4.1332387705928152e-14  -7.8113303368315345e-15  -1.1887918709357756e-14  -2.6475963337619011e-15  5.4489370982313323e-16  -1.0298473337445975e-15  -2.1067325044305213e-16  -4.2715006580935624e-16  -2.8936314089818789e-15  -3.4629237407862955e-15  6.9731174596581641e-15  2.0388259035656068e-14  1.0549895155738974e-16  -5.2978682641601251e-14  -4.6815407796986358e-14  5.5578113563902243e-14  9.8524066676700163e-14  -1.5159463968913501e-14  -9.4141947858123423e-14  -8.6399187083945375e-15  5.5302408222917542e-14  3.3424081048370523e-15  -1.4561778575214532e-14  -2.6475963337618968e-15  3.9960686428657736e-15  -3.0611919148089221e-12  -2.0773043460133365e-12  -1.7903723826429279e-12  -1.9180949268343950e-12  -2.3555722406031708e-12  -2.3203536532952424e-12  -7.2875850824308892e-13  1.3537698993861726e-12  1.3312027379059025e-13  -5.6341617033233525e-12  -1.0247474857475903e-11  -7.4749931844540416e-12  2.3115465065918312e-14  4.3398411531270142e-12  3.3178946795316944e-12  1.0475580876735471e-12  2.0500278016831294e-13  1.1831160083767354e-13  7.6602279739603051e-14  2.6847031413672741e-14  7.7766029135465298e-15  -2.0773043460133216e-12  -1.2383369108066857e-12  -1.0331435895491895e-12  -1.1042374190206887e-12  -1.3765138310463089e-12  -1.3953033876725686e-12  -4.5599327660772865e-13  8.8329691843950397e-13  2.7131601673387693e-13  -3.2250445381107654e-12  -6.1525400422185225e-12  -4.5544678523316764e-12  -5.4388657966445174e-14  2.4362056223333027e-12  1.7561379567885665e-12  5.2579603727936641e-13  1.5984210025474084e-13  9.3660547573930688e-14  3.5822510617163747e-14  5.8629838569352972e-15  5.6506103851802541e-17  -1.7903723826428919e-12  -1.0331435895491845e-12  -8.5959241135395879e-13  -9.2510350395578748e-13  -1.1491307985662606e-12  -1.1389213020152318e-12  -3.2674711549500521e-13  7.6490639669101407e-13  1.6058321612958482e-13  -2.8283664835523104e-12  -5.2237389786171331e-12  -3.7635499419478895e-12  6.8978861660210058e-14  2.1377232806658170e-12  1.5444974453220954e-12  5.0437879398558474e-13  1.6202919076878461e-13  6.4365356635540510e-14  1.7190866261851326e-14  3.3284397228570654e-15  1.5883405212169773e-15  -1.9180949268343820e-12  -1.1042374190207022e-12  -9.2510350395580364e-13  -9.8712308634045020e-13  -1.1958110739008009e-12  -1.1679282073680647e-12  -3.7809133035073696e-13  6.3348086554506371e-13  -2.3777924090929859e-14  -2.9350617295692463e-12  -5.1922820865304181e-12  -3.7145822395978514e-12  1.3599053181472264e-14  2.0317346816399090e-12  1.4922514752350934e-12  4.9829457931134281e-13  1.4900241189059172e-13  4.5165046733839959e-14  1.0699010603291656e-14  3.0921873333471458e-15  1.5181533809759243e-15  -2.3555722406032132e-12  -1.3765138310463411e-12  -1.1491307985662717e-12  -1.1958110739007918e-12  -1.3961052349645665e-12  -1.3696784807251006e-12  -6.0441338036995120e-13  3.5984138431247481e-13  -3.3059078488882341e-13  -3.2125019284204029e-12  -5.3841283938947434e-12  -3.8257423721305944e-12  -5.1179303259179249e-14  2.0043568408196938e-12  1.5005331547246441e-12  5.1749163626491614e-13  1.5791221800014734e-13  4.7466962303059739e-14  1.3865873787918415e-14  4.4707350123004453e-15  1.3087485209083135e-15  -2.3203536532952997e-12  -1.3953033876725833e-12  -1.1389213020152086e-12  -1.1679282073680293e-12  -1.3696784807250863e-12  -1.3676646595660961e-12  -6.3978938183508033e-13  3.0675875488044809e-13  -3.4327177246231527e-13  -3.1170337655070772e-12  -5.1528552729622220e-12  -3.4961198766662311e-12  3.0354838195670126e-13  2.3233528687995602e-12  1.7518322924257645e-12  6.9142227591830841e-13  2.6405351473885569e-13  1.0716320290342984e-13  4.5787190275856607e-14  1.9265868615750134e-14  7.0553558129362739e-15  -7.2875850824311447e-13  -4.5599327660771451e-13  -3.2674711549496154e-13  -3.7809133035070424e-13  -6.0441338036995049e-13  -6.3978938183508982e-13  7.6304794677799307e-14  1.0885503436582648e-12  5.8887391596166456e-13  -2.0176738957796862e-12  -3.9736173446257852e-12  -2.3883184842218638e-12  1.2084416307414477e-12  2.9721292180630341e-12  2.1672772356593523e-12  9.3393865579657294e-13  3.9690097175949406e-13  1.7842675683964134e-13  8.4216709689491529e-14  3.9410127191937553e-14  1.6726425824993699e-14  1.3537698993861847e-12  8.8329691843953143e-13  7.6490639669104588e-13  6.3348086554506947e-13  3.5984138431245456e-13  3.0675875488042664e-13  1.0885503436582567e-12  2.2686831075940033e-12  1.9506312622274945e-12  -6.2233864880732792e-13  -2.7986475872901855e-12  -1.6418978772586291e-12  1.4814881765647189e-12  2.8874923017272020e-12  1.9072035212722942e-12  6.5130517753490510e-13  1.7387564311110874e-13  3.5085542071622499e-14  6.4625205248327219e-15  3.5394430510439115e-15  3.1195721870935232e-15  1.3312027379062398e-13  2.7131601673390238e-13  1.6058321612959405e-13  -2.3777924090943996e-14  -3.3059078488884678e-13  -3.4327177246232704e-13  5.8887391596167072e-13  1.9506312622275046e-12  1.6423161676305518e-12  -1.2597867278755429e-12  -4.0467579476032693e-12  -3.5029736353164080e-12  -6.9930720022461576e-13  7.9027721965457577e-13  1.9468662196326490e-13  -5.6911022323191438e-13  -6.0297719963276131e-13  -4.1516112240992505e-13  -2.3439809394832584e-13  -1.1595296735643318e-13  -5.0111670324533902e-14  -5.6341617033232975e-12  -3.2250445381107452e-12  -2.8283664835523173e-12  -2.9350617295692665e-12  -3.2125019284204155e-12  -3.1170337655070732e-12  -2.0176738957796672e-12  -6.2233864880731116e-13  -1.2597867278755455e-12  -4.8395282037389398e-12  -8.2849111538243621e-12  -7.9089958859792696e-12  -4.5858343274724951e-12  -2.0930983158412853e-12  -1.6029132505457681e-12  -1.5116521366181864e-12  -1.0202223812453786e-12  -5.7472714601468681e-13  -2.9258061717501338e-13  -1.4124503640293050e-13  -6.3271348500215263e-14  -1.0247474857475861e-11  -6.1525400422185193e-12  -5.2237389786171501e-12  -5.1922820865304342e-12  -5.3841283938947482e-12  -5.1528552729622091e-12  -3.9736173446257666e-12  -2.7986475872901779e-12  -4.0467579476032854e-12  -8.2849111538243879e-12  -1.1814703076364204e-11  -1.0590430274560594e-11  -5.7490754535207987e-12  -1.7411252291049201e-12  -2.9975558028800197e-13  4.4275933086734116e-14  3.0587047967338362e-13  3.4440531681178836e-13  2.5247702812998136e-13  1.4215967210707357e-13  6.6101028777503878e-14  -7.4749931844540496e-12  -4.5544678523316982e-12  -3.7635499419479097e-12  -3.7145822395978635e-12  -3.8257423721305928e-12  -3.4961198766662190e-12  -2.3883184842218562e-12  -1.6418978772586378e-12  -3.5029736353164375e-12  -7.9089958859793052e-12  -1.0590430274560597e-11  -7.6573747651872954e-12  -1.1369273198759428e-12  3.6148519255498614e-12  4.6157848801889556e-12  3.7602156715119193e-12  2.6919350935311996e-12  1.6824628055170878e-12  9.2649660015639550e-13  4.5566266784362899e-13  2.0023463316949886e-13  2.3115465065865401e-14  -5.4388657966480414e-14  6.8978861660192185e-14  1.3599053181472062e-14  -5.1179303259173594e-14  3.0354838195670045e-13  1.2084416307414463e-12  1.4814881765647023e-12  -6.9930720022464807e-13  -4.5858343274725217e-12  -5.7490754535208060e-12  -1.1369273198759366e-12  5.9866216915210982e-12  9.7231140171825035e-12  8.6355912548737787e-12  5.6561489623147512e-12  3.1465816248659465e-12  1.4843453852211475e-12  5.9486229711994216e-13  2.0336343705264975e-13  5.5946162221114008e-14  4.3398411531269464e-12  2.4362056223332732e-12  2.1377232806658126e-12  2.0317346816399138e-12  2.0043568408196983e-12  2.3233528687995606e-12  2.9721292180630272e-12  2.8874923017271854e-12  7.9027721965455759e-13  -2.0930983158412893e-12  -1.7411252291049092e-12  3.6148519255498772e-12  9.7231140171825180e-12  1.1029767961363117e-11  7.4534924945728977e-12  3.0821500543459247e-12  4.7442849666165967e-13  -5.3097268447987942e-13  -6.3173885216243383e-13  -4.3097030552027434e-13  -2.2961142980382443e-13  3.3178946795316439e-12  1.7561379567885540e-12  1.5444974453221045e-12  1.4922514752351031e-12  1.5005331547246427e-12  1.7518322924257571e-12  2.1672772356593463e-12  1.9072035212722878e-12  1.9468662196325750e-13  -1.6029132505457673e-12  -2.9975558028799067e-13  4.6157848801889726e-12  8.6355912548737981e-12  7.4534924945728993e-12  2.5881211377150867e-12  -1.3357078533178840e-12  -2.4583748051795551e-12  -1.9717741626270451e-12  -1.1211944166278992e-12  -5.0035795162300978e-13  -1.7900883944263409e-13  1.0475580876735219e-12  5.2579603727936560e-13  5.0437879398559575e-13  4.9829457931134785e-13  5.1749163626491149e-13  6.9142227591830184e-13  9.3393865579657233e-13  6.5130517753490359e-13  -5.6911022323191852e-13  -1.5116521366181844e-12  4.4275933086741437e-14  3.7602156715119274e-12  5.6561489623147561e-12  3.0821500543459280e-12  -1.3357078533178801e-12  -3.4411225967059278e-12  -2.7181580237244595e-12  -1.2591542999486867e-12  -2.8252084218297078e-13  8.4780221045357884e-14  1.3183409366300734e-13  2.0500278016830428e-13  1.5984210025474445e-13  1.6202919076879218e-13  1.4900241189059225e-13  1.5791221800014212e-13  2.6405351473885215e-13  3.9690097175949583e-13  1.7387564311110948e-13  -6.0297719963276222e-13  -1.0202223812453764e-12  3.0587047967338761e-13  2.6919350935312020e-12  3.1465816248659457e-12  4.7442849666166068e-13  -2.4583748051795506e-12  -2.7181580237244591e-12  -1.0778207775442749e-12  1.7790344676742530e-13  4.9889256266988785e-13  3.4861518910626977e-13  1.5425499116065256e-13  1.1831160083767316e-13  9.3660547573934816e-14  6.4365356635544259e-14  4.5165046733838142e-14  4.7466962303055725e-14  1.0716320290342894e-13  1.7842675683964356e-13  3.5085542071623048e-14  -4.1516112240992540e-13  -5.7472714601468550e-13  3.4440531681179058e-13  1.6824628055170884e-12  1.4843453852211461e-12  -5.3097268447987881e-13  -1.9717741626270427e-12 