<?xml version="1.0"?>
<VTKFile type="UnstructuredGrid"  version="0.1"  >
<UnstructuredGrid>
<Piece  NumberOfPoints="9261" NumberOfCells="48000">
<Points>
<DataArray  type="Float64"  NumberOfComponents="3"  format="ascii">-2 -2 -2  -1.8 -2 -2  -1.6 -2 -2  -1.4 -2 -2  -1.2 -2 -2  -1 -2 -2  -0.8 -2 -2  -0.6000000000000001 -2 -2  -0.3999999999999999 -2 -2  -0.2 -2 -2  0 -2 -2  0.2000000000000002 -2 -2  0.3999999999999999 -2 -2  0.6000000000000001 -2 -2  0.7999999999999998 -2 -2  1 -2 -2  1.2 -2 -2  1.4 -2 -2  1.6 -2 -2  1.8 -2 -2  2 -2 -2  -2 -1.8 -2  -1.8 -1.8 -2  -1.6 -1.8 -2  -1.4 -1.8 -2  -1.2 -1.8 -2  -1 -1.8 -2  -0.8 -1.8 -2  -0.6000000000000001 -1.8 -2  -0.3999999999999999 -1.8 -2  -0.2 -1.8 -2  0 -1.8 -2  0.2000000000000002 -1.8 -2  0.3999999999999999 -1.8 -2  0.6000000000000001 -1.8 -2  0.7999999999999998 -1.8 -2  1 -1.8 -2  1.2 -1.8 -2  1.4 -1.8 -2  1.6 -1.8 -2  1.8 -1.8 -2  2 -1.8 -2  -2 -1.6 -2  -1.8 -1.6 -2  -1.6 -1.6 -2  -1.4 -1.6 -2  -1.2 -1.6 -2  -1 -1.6 -2  -0.8 -1.6 -2  -0.6000000000000001 -1.6 -2  -0.3999999999999999 -1.6 -2  -0.2 -1.6 -2  0 -1.6 -2  0.2000000000000002 -1.6 -2  0.3999999999999999 -1.6 -2  0.6000000000000001 -1.6 -2  0.7999999999999998 -1.6 -2  1 -1.6 -2  1.2 -1.6 -2  1.4 -1.6 -2  1.6 -1.6 -2  1.8 -1.6 -2  2 -1.6 -2  -2 -1.4 -2  -1.8 -1.4 -2  -1.6 -1.4 -2  -1.4 -1.4 -2  -1.2 -1.4 -2  -1 -1.4 -2  -0.8 -1.4 -2  -0.6000000000000001 -1.4 -2  -0.3999999999999999 -1.4 -2  -0.2 -1.4 -2  0 -1.4 -2  0.2000000000000002 -1.4 -2  0.3999999999999999 -1.4 -2  0.6000000000000001 -1.4 -2  0.7999999999999998 -1.4 -2  1 -1.4 -2  1.2 -1.4 -2  1.4 -1.4 -2  1.6 -1.4 -2  1.8 -1.4 -2  2 -1.4 -2  -2 -1.2 -2  -1.8 -1.2 -2  -1.6 -1.2 -2  -1.4 -1.2 -2  -1.2 -1.2 -2  -1 -1.2 -2  -0.8 -1.2 -2  -0.6000000000000001 -1.2 -2  -0.3999999999999999 -1.2 -2  -0.2 -1.2 -2  0 -1.2 -2  0.2000000000000002 -1.2 -2  0.3999999999999999 -1.2 -2  0.6000000000000001 -1.2 -2  0.7999999999999998 -1.2 -2  1 -1.2 -2  1.2 -1.2 -2  1.4 -1.2 -2  1.6 -1.2 -2  1.8 -1.2 -2  2 -1.2 -2  -2 -1 -2  -1.8 -1 -2  -1.6 -1 -2  -1.4 -1 -2  -1.2 -1 -2  -1 -1 -2  -0.8 -1 -2  -0.6000000000000001 -1 -2  -0.3999999999999999 -1 -2  -0.2 -1 -2  0 -1 -2  0.2000000000000002 -1 -2  0.3999999999999999 -1 -2  0.6000000000000001 -1 -2  0.7999999999999998 -1 -2  1 -1 -2  1.2 -1 -2  1.4 -1 -2  1.6 -1 -2  1.8 -1 -2  2 -1 -2  -2 -0.8 -2  -1.8 -0.8 -2  -1.6 -0.8 -2  -1.4 -0.8 -2  -1.2 -0.8 -2  -1 -0.8 -2  -0.8 -0.8 -2  -0.6000000000000001 -0.8 -2  -0.3999999999999999 -0.8 -2  -0.2 -0.8 -2  0 -0.8 -2  0.2000000000000002 -0.8 -2  0.3999999999999999 -0.8 -2  0.6000000000000001 -0.8 -2  0.7999999999999998 -0.8 -2  1 -0.8 -2  1.2 -0.8 -2  1.4 -0.8 -2  1.6 -0.8 -2  1.8 -0.8 -2  2 -0.8 -2  -2 -0.6000000000000001 -2  -1.8 -0.6000000000000001 -2  -1.6 -0.6000000000000001 -2  -1.4 -0.6000000000000001 -2  -1.2 -0.6000000000000001 -2  -1 -0.6000000000000001 -2  -0.8 -0.6000000000000001 -2  -0.6000000000000001 -0.6000000000000001 -2  -0.3999999999999999 -0.6000000000000001 -2  -0.2 -0.6000000000000001 -2  0 -0.6000000000000001 -2  0.2000000000000002 -0.6000000000000001 -2  0.3999999999999999 -0.6000000000000001 -2  0.6000000000000001 -0.6000000000000001 -2  0.7999999999999998 -0.6000000000000001 -2  1 -0.6000000000000001 -2  1.2 -0.6000000000000001 -2  1.4 -0.6000000000000001 -2  1.6 -0.6000000000000001 -2  1.8 -0.6000000000000001 -2  2 -0.6000000000000001 -2  -2 -0.3999999999999999 -2  -1.8 -0.3999999999999999 -2  -1.6 -0.3999999999999999 -2  -1.4 -0.3999999999999999 -2  -1.2 -0.3999999999999999 -2  -1 -0.3999999999999999 -2  -0.8 -0.3999999999999999 -2  -0.6000000000000001 -0.3999999999999999 -2  -0.3999999999999999 -0.3999999999999999 -2  -0.2 -0.3999999999999999 -2  0 -0.3999999999999999 -2  0.2000000000000002 -0.3999999999999999 -2  0.3999999999999999 -0.3999999999999999 -2  0.6000000000000001 -0.3999999999999999 -2  0.7999999999999998 -0.3999999999999999 -2  1 -0.3999999999999999 -2  1.2 -0.3999999999999999 -2  1.4 -0.3999999999999999 -2  1.6 -0.3999999999999999 -2  1.8 -0.3999999999999999 -2  2 -0.3999999999999999 -2  -2 -0.2 -2  -1.8 -0.2 -2  -1.6 -0.2 -2  -1.4 -0.2 -2  -1.2 -0.2 -2  -1 -0.2 -2  -0.8 -0.2 -2  -0.6000000000000001 -0.2 -2  -0.3999999999999999 -0.2 -2  -0.2 -0.2 -2  0 -0.2 -2  0.2000000000000002 -0.2 -2  0.3999999999999999 -0.2 -2  0.6000000000000001 -0.2 -2  0.7999999999999998 -0.2 -2  1 -0.2 -2  1.2 -0.2 -2  1.4 -0.2 -2  1.6 -0.2 -2  1.8 -0.2 -2  2 -0.2 -2  -2 0 -2  -1.8 0 -2  -1.6 0 -2  -1.4 0 -2  -1.2 0 -2  -1 0 -2  -0.8 0 -2  -0.6000000000000001 0 -2  -0.3999999999999999 0 -2  -0.2 0 -2  0 0 -2  0.2000000000000002 0 -2  0.3999999999999999 0 -2  0.6000000000000001 0 -2  0.7999999999999998 0 -2  1 0 -2  1.2 0 -2  1.4 0 -2  1.6 0 -2  1.8 0 -2  2 0 -2  -2 0.2000000000000002 -2  -1.8 0.2000000000000002 -2  -1.6 0.2000000000000002 -2  -1.4 0.2000000000000002 -2  -1.2 0.2000000000000002 -2  -1 0.2000000000000002 -2  -0.8 0.2000000000000002 -2  -0.6000000000000001 0.2000000000000002 -2  -0.3999999999999999 0.2000000000000002 -2  -0.2 0.2000000000000002 -2  0 0.2000000000000002 -2  0.2000000000000002 0.2000000000000002 -2  0.3999999999999999 0.2000000000000002 -2  0.6000000000000001 0.2000000000000002 -2  0.7999999999999998 0.2000000000000002 -2  1 0.2000000000000002 -2  1.2 0.2000000000000002 -2  1.4 0.2000000000000002 -2  1.6 0.2000000000000002 -2  1.8 0.2000000000000002 -2  2 0.2000000000000002 -2  -2 0.3999999999999999 -2  -1.8 0.3999999999999999 -2  -1.6 0.3999999999999999 -2  -1.4 0.3999999999999999 -2  -1.2 0.3999999999999999 -2  -1 0.3999999999999999 -2  -0.8 0.3999999999999999 -2  -0.6000000000000001 0.3999999999999999 -2  -0.3999999999999999 0.3999999999999999 -2  -0.2 0.3999999999999999 -2  0 0.3999999999999999 -2  0.2000000000000002 0.3999999999999999 -2  0.3999999999999999 0.3999999999999999 -2  0.6000000000000001 0.3999999999999999 -2  0.7999999999999998 0.3999999999999999 -2  1 0.3999999999999999 -2  1.2 0.3999999999999999 -2  1.4 0.3999999999999999 -2  1.6 0.3999999999999999 -2  1.8 0.3999999999999999 -2  2 0.3999999999999999 -2  -2 0.6000000000000001 -2  -1.8 0.6000000000000001 -2  -1.6 0.6000000000000001 -2  -1.4 0.6000000000000001 -2  -1.2 0.6000000000000001 -2  -1 0.6000000000000001 -2  -0.8 0.6000000000000001 -2  -0.6000000000000001 0.6000000000000001 -2  -0.3999999999999999 0.6000000000000001 -2  -0.2 0.6000000000000001 -2  0 0.6000000000000001 -2  0.2000000000000002 0.6000000000000001 -2  0.3999999999999999 0.6000000000000001 -2  0.6000000000000001 0.6000000000000001 -2  0.7999999999999998 0.6000000000000001 -2  1 0.6000000000000001 -2  1.2 0.6000000000000001 -2  1.4 0.6000000000000001 -2  1.6 0.6000000000000001 -2  1.8 0.6000000000000001 -2  2 0.6000000000000001 -2  -2 0.7999999999999998 -2  -1.8 0.7999999999999998 -2  -1.6 0.7999999999999998 -2  -1.4 0.7999999999999998 -2  -1.2 0.7999999999999998 -2  -1 0.7999999999999998 -2  -0.8 0.7999999999999998 -2  -0.6000000000000001 0.7999999999999998 -2  -0.3999999999999999 0.7999999999999998 -2  -0.2 0.7999999999999998 -2  0 0.7999999999999998 -2  0.2000000000000002 0.7999999999999998 -2  0.3999999999999999 0.7999999999999998 -2  0.6000000000000001 0.7999999999999998 -2  0.7999999999999998 0.7999999999999998 -2  1 0.7999999999999998 -2  1.2 0.7999999999999998 -2  1.4 0.7999999999999998 -2  1.6 0.7999999999999998 -2  1.8 0.7999999999999998 -2  2 0.7999999999999998 -2  -2 1 -2  -1.8 1 -2  -1.6 1 -2  -1.4 1 -2  -1.2 1 -2  -1 1 -2  -0.8 1 -2  -0.6000000000000001 1 -2  -0.3999999999999999 1 -2  -0.2 1 -2  0 1 -2  0.2000000000000002 1 -2  0.3999999999999999 1 -2  0.6000000000000001 1 -2  0.7999999999999998 1 -2  1 1 -2  1.2 1 -2  1.4 1 -2  1.6 1 -2  1.8 1 -2  2 1 -2  -2 1.2 -2  -1.8 1.2 -2  -1.6 1.2 -2  -1.4 1.2 -2  -1.2 1.2 -2  -1 1.2 -2  -0.8 1.2 -2  -0.6000000000000001 1.2 -2  -0.3999999999999999 1.2 -2  -0.2 1.2 -2  0 1.2 -2  0.2000000000000002 1.2 -2  0.3999999999999999 1.2 -2  0.6000000000000001 1.2 -2  0.7999999999999998 1.2 -2  1 1.2 -2  1.2 1.2 -2  1.4 1.2 -2  1.6 1.2 -2  1.8 1.2 -2  2 1.2 -2  -2 1.4 -2  -1.8 1.4 -2  -1.6 1.4 -2  -1.4 1.4 -2  -1.2 1.4 -2  -1 1.4 -2  -0.8 1.4 -2  -0.6000000000000001 1.4 -2  -0.3999999999999999 1.4 -2  -0.2 1.4 -2  0 1.4 -2  0.2000000000000002 1.4 -2  0.3999999999999999 1.4 -2  0.6000000000000001 1.4 -2  0.7999999999999998 1.4 -2  1 1.4 -2  1.2 1.4 -2  1.4 1.4 -2  1.6 1.4 -2  1.8 1.4 -2  2 1.4 -2  -2 1.6 -2  -1.8 1.6 -2  -1.6 1.6 -2  -1.4 1.6 -2  -1.2 1.6 -2  -1 1.6 -2  -0.8 1.6 -2  -0.6000000000000001 1.6 -2  -0.3999999999999999 1.6 -2  -0.2 1.6 -2  0 1.6 -2  0.2000000000000002 1.6 -2  0.3999999999999999 1.6 -2  0.6000000000000001 1.6 -2  0.7999999999999998 1.6 -2  1 1.6 -2  1.2 1.6 -2  1.4 1.6 -2  1.6 1.6 -2  1.8 1.6 -2  2 1.6 -2  -2 1.8 -2  -1.8 1.8 -2  -1.6 1.8 -2  -1.4 1.8 -2  -1.2 1.8 -2  -1 1.8 -2  -0.8 1.8 -2  -0.6000000000000001 1.8 -2  -0.3999999999999999 1.8 -2  -0.2 1.8 -2  0 1.8 -2  0.2000000000000002 1.8 -2  0.3999999999999999 1.8 -2  0.6000000000000001 1.8 -2  0.7999999999999998 1.8 -2  1 1.8 -2  1.2 1.8 -2  1.4 1.8 -2  1.6 1.8 -2  1.8 1.8 -2  2 1.8 -2  -2 2 -2  -1.8 2 -2  -1.6 2 -2  -1.4 2 -2  -1.2 2 -2  -1 2 -2  -0.8 2 -2  -0.6000000000000001 2 -2  -0.3999999999999999 2 -2  -0.2 2 -2  0 2 -2  0.2000000000000002 2 -2  0.3999999999999999 2 -2  0.6000000000000001 2 -2  0.7999999999999998 2 -2  1 2 -2  1.2 2 -2  1.4 2 -2  1.6 2 -2  1.8 2 -2  2 2 -2  -2 -2 -1.8  -1.8 -2 -1.8  -1.6 -2 -1.8  -1.4 -2 -1.8  -1.2 -2 -1.8  -1 -2 -1.8  -0.8 -2 -1.8  -0.6000000000000001 -2 -1.8  -0.3999999999999999 -2 -1.8  -0.2 -2 -1.8  0 -2 -1.8  0.2000000000000002 -2 -1.8  0.3999999999999999 -2 -1.8  0.6000000000000001 -2 -1.8  0.7999999999999998 -2 -1.8  1 -2 -1.8  1.2 -2 -1.8  1.4 -2 -1.8  1.6 -2 -1.8  1.8 -2 -1.8  2 -2 -1.8  -2 -1.8 -1.8  -1.8 -1.8 -1.8  -1.6 -1.8 -1.8  -1.4 -1.8 -1.8  -1.2 -1.8 -1.8  -1 -1.8 -1.8  -0.8 -1.8 -1.8  -0.6000000000000001 -1.8 -1.8  -0.3999999999999999 -1.8 -1.8  -0.2 -1.8 -1.8  0 -1.8 -1.8  0.2000000000000002 -1.8 -1.8  0.3999999999999999 -1.8 -1.8  0.6000000000000001 -1.8 -1.8  0.7999999999999998 -1.8 -1.8  1 -1.8 -1.8  1.2 -1.8 -1.
[...]
<PointData  Scalars="uA"> 
<DataArray  type="Float64"  Name="uA"  format="ascii">2.8918859695998154e-12  2.2436385842840364e-12  2.0272485646767903e-12  2.3217573684510052e-12  2.7622811742381696e-12  2.1595510250841145e-12  -3.2879793286539406e-13  -2.7520530312840648e-12  -6.0270849068652459e-13  7.6058451530544734e-12  1.5454708555418209e-11  1.3643032575778236e-11  1.4466921887393502e-12  -1.0875188655304640e-11  -1.3550825674368078e-11  -7.6292052762738336e-12  -1.2347091210213162e-12  9.5241528167450642e-13  5.8613798569355610e-13  6.3906910278350192e-14  -5.9875965077832520e-14  2.2436385842840223e-12  1.5191741963975237e-12  1.3332479429285281e-12  1.5388949340202696e-12  1.8601830355770724e-12  1.4351785522375798e-12  -3.5567669819577532e-13  -2.0868407063536458e-12  -4.6324162314098678e-13  5.5099873339318661e-12  1.0960898605714896e-11  9.1541232009809498e-12  1.0608384705449656e-13  -8.2110624983451842e-12  -9.0978746134087727e-12  -4.3758899597578048e-12  -3.0092507361115703e-13  5.4450912045814479e-13  1.2595465025004497e-13  -8.0510414665608473e-14  -6.4939838796673686e-14  2.0272485646767753e-12  1.3332479429285202e-12  1.1657144358881340e-12  1.3358391815612806e-12  1.5921716366834110e-12  1.2105268622801932e-12  -3.0440642942284595e-13  -1.7173417136967518e-12  -2.6027206631084758e-13  4.8264425467862983e-12  9.3570777487873293e-12  7.6983680386065222e-12  2.6989362266545543e-14  -6.8644216290037287e-12  -7.4965977784322758e-12  -3.6105538927819796e-12  -3.9852403034114313e-13  2.4840196424446782e-13  5.0104143342854602e-14  -1.5579287262833526e-14  9.0021126682265107e-15  2.3217573684510028e-12  1.5388949340202771e-12  1.3358391815612934e-12  1.4774486961619066e-12  1.6993074568309386e-12  1.3209191673688413e-12  -9.1727137555529312e-14  -1.3466088126945106e-12  1.2573532602399992e-13  4.9424776284846550e-12  9.1148030093262546e-12  7.4188574320543504e-12  1.3132553542781003e-13  -6.3625274878642310e-12  -7.0056738585031564e-12  -3.4590035974648693e-12  -5.0476257580916685e-13  1.5790924350159893e-13  7.8361258347251920e-14  3.4400693813389758e-14  2.9413436450544525e-14  2.7622811742381869e-12  1.8601830355771031e-12  1.5921716366834384e-12  1.6993074568309432e-12  1.9072461453833085e-12  1.5458252642594218e-12  1.9582012250063772e-13  -9.7712328227973794e-13  5.0826322907136151e-13  5.1948921246562704e-12  9.1506331168137537e-12  7.3151129982859994e-12  4.3542341461046422e-14  -6.3859698264224025e-12  -7.0512631506814415e-12  -3.5894623894626622e-12  -6.6071885181457494e-13  6.8408290790052831e-14  6.2427648491506968e-14  2.8688553681242302e-14  1.5579700868588892e-14  2.1595510250841477e-12  1.4351785522376093e-12  1.2105268622801958e-12  1.3209191673688143e-12  1.5458252642593972e-12  1.2255767139137610e-12  -8.0001771877871328e-14  -1.2522212529063484e-12  1.4067552604559982e-13  4.6358422090876835e-12  8.3734181965403573e-12  6.4082742346748936e-12  -8.4251239323189754e-13  -7.1427481356823863e-12  -7.6529203125701466e-12  -4.0465134201982063e-12  -9.7668544169364631e-13  -1.1675329407384738e-13  -3.1529135142090772e-14  -2.6484265573987577e-14  -2.1116800764987388e-14  -3.2879793286537326e-13  -3.5567669819578082e-13  -3.0440642942289154e-13  -9.1727137555593078e-14  1.9582012250059471e-13  -8.0001771877881425e-14  -1.4027844649401494e-12  -2.7001745312638219e-12  -1.5279125310087459e-12  2.7445611974837607e-12  6.3902232218289963e-12  4.5543633773050558e-12  -2.3607352888639081e-12  -8.2285059819258748e-12  -8.3360166008924115e-12  -4.4273708010658194e-12  -1.1621903490175165e-12  -1.9207286609313788e-13  -5.7653135499551352e-14  -4.0585384732169055e-14  -2.9706867522198627e-14  -2.7520530312840898e-12  -2.0868407063536910e-12  -1.7173417136968171e-12  -1.3466088126945674e-12  -9.7712328227975853e-13  -1.2522212529063375e-12  -2.7001745312638034e-12  -4.2370928498364300e-12  -3.2926056299786890e-12  9.5658798957368779e-13  4.9129231494421029e-12  3.6849818264830853e-12  -2.5151201554462472e-12  -7.7890393214249934e-12  -7.5648895228677499e-12  -3.5925167992180513e-12  -4.4361687535712493e-13  3.3690066897883922e-13  2.8511681227380768e-13  1.5793098231789782e-13  8.9474389365698821e-14  -6.0270849068659406e-13  -4.6324162314104464e-13  -2.6027206631089180e-13  1.2573532602398220e-13  5.0826322907137989e-13  1.4067552604563910e-13  -1.5279125310087140e-12  -3.2926056299786797e-12  -2.3414400842222861e-12  2.3442650796005791e-12  7.1280055718210515e-12  6.8176722662245831e-12  1.2377512071923608e-12  -3.9546647974283508e-12  -4.1700660177111506e-12  -9.4502534806517063e-13  1.4043444688926121e-12  1.5096613470402910e-12  9.7221925944505988e-13  5.3759612960105335e-13  3.0795625529584832e-13  7.6058451530543846e-12  5.5099873339318184e-12  4.8264425467862798e-12  4.9424776284846639e-12  5.1948921246563068e-12  4.6358422090877271e-12  2.7445611974837817e-12  9.5658798957368092e-13  2.3442650796005839e-12  7.9384901365769586e-12  1.3729551627721241e-11  1.3949614086499315e-11  8.0229409938712087e-12  1.6374905270453806e-12  -2.1262286721151373e-13  1.4355607900476077e-12  2.5986062131296163e-12  1.9878929157684697e-12  1.1070036572123500e-12  5.4988906471265579e-13  2.7962369813436505e-13  1.5454708555418131e-11  1.0960898605714859e-11  9.3570777487873196e-12  9.1148030093262692e-12  9.1506331168137925e-12  8.3734181965403880e-12  6.3902232218289939e-12  4.9129231494420786e-12  7.1280055718210483e-12  1.3729551627721273e-11  1.9994338014835365e-11  1.9541242662126564e-11  1.1765546047076764e-11  2.9652873267241439e-12  -1.0207630064587342e-12  -6.5090370771744466e-13  1.7702518836995909e-13  -1.1403158714506296e-13  -4.1007150745079417e-13  -4.0974589122153894e-13  -3.3579727568917876e-13  1.3643032575778192e-11  9.1541232009809433e-12  7.6983680386065368e-12  7.4188574320543844e-12  7.3151129982860511e-12  6.4082742346749106e-12  4.5543633773050429e-12  3.6849818264830667e-12  6.8176722662246106e-12  1.3949614086499375e-11  1.9541242662126606e-11  1.6984404808852738e-11  6.3740143536766113e-12  -4.7672520843713589e-12  -9.6482861225821790e-12  -8.5728466964276326e-12  -5.9990685009511322e-12  -4.2940216312255637e-12  -2.9163210755110010e-12  -1.7794415562534960e-12  -1.0908318977476161e-12  1.4466921887393870e-12  1.0608384705455109e-13  2.6989362266602695e-14  1.3132553542785264e-13  4.3542341461078734e-14  -8.4251239323188381e-13  -2.3607352888639271e-12  -2.5151201554462512e-12  1.2377512071924064e-12  8.0229409938712669e-12  1.1765546047076787e-11  6.3740143536765919e-12  -6.6022586389776586e-12  -1.8220981330329741e-11  -2.1288630446822529e-11  -1.6894732283387836e-11  -1.0814614123400303e-11  -6.4276735713049223e-12  -3.5033547343173696e-12  -1.7172249867136950e-12  -8.0840634869317721e-13  -1.0875188655304538e-11  -8.2110624983451066e-12  -6.8644216290036689e-12  -6.3625274878641947e-12  -6.3859698264223904e-12  -7.1427481356823936e-12  -8.2285059819258877e-12  -7.7890393214249788e-12  -3.9546647974283088e-12  1.6374905270454064e-12  2.9652873267241286e-12  -4.7672520843714025e-12  -1.8220981330329764e-11  -2.7559897750973663e-11  -2.6330466825518440e-11  -1.7436020002976254e-11  -8.2750593623010696e-12  -2.7732263867764345e-12  -2.0477317701106253e-13  6.3770765142721389e-13  8.0053475900768147e-13  -1.3550825674367978e-11  -9.0978746134087162e-12  -7.4965977784322500e-12  -7.0056738585031539e-12  -7.0512631506814520e-12  -7.6529203125701547e-12  -8.3360166008924115e-12  -7.5648895228677354e-12  -4.1700660177111296e-12  -2.1262286721151348e-13  -1.0207630064587645e-12  -9.6482861225822162e-12  -2.1288630446822555e-11  -2.6330466825518440e-11  -2.0280737493401718e-11  -8.3230601181293021e-12  1.0960426615023038e-12  4.6591052923914130e-12  4.5582950690072288e-12  3.1907854216483673e-12  2.0597270635899426e-12  -7.6292052762737738e-12  -4.3758899597577790e-12  -3.6105538927819844e-12  -3.4590035974648883e-12  -3.5894623894626771e-12  -4.0465134201982095e-12  -4.4273708010658170e-12  -3.5925167992180424e-12  -9.4502534806516599e-13  1.4355607900475966e-12  -6.5090370771747122e-13  -8.5728466964276584e-12  -1.6894732283387839e-11  -1.7436020002976251e-11  -8.3230601181293134e-12  3.4713989837079756e-12  9.8056160026989018e-12  9.2606564774877172e-12  5.9408206258903287e-12  2.9309725638193400e-12  1.2157765678606923e-12  -1.2347091210212891e-12  -3.0092507361115012e-13  -3.9852403034115631e-13  -5.0476257580918270e-13  -6.6071885181458140e-13  -9.7668544169364671e-13  -1.1621903490175174e-12  -4.4361687535712270e-13  1.4043444688926113e-12  2.5986062131296062e-12  1.7702518836994556e-13  -5.9990685009511322e-12  -1.0814614123400292e-11  -8.2750593623010664e-12  1.0960426615022964e-12  9.8056160026989002e-12  1.1495208355015188e-11  7.2860284121133117e-12  2.6268460371755380e-12  6.6318100030954880e-14  -8.1658519869113937e-13  9.5241528167452137e-13  5.4450912045814712e-13  2.4840196424445732e-13  1.5790924350158919e-13  6.8408290790051228e-14  -1.1675329407384511e-13  -1.9207286609313704e-13  3.3690066897883953e-13  1.5096613470402917e-12  1.9878929157684640e-12  -1.1403158714507058e-13  -4.2940216312255637e-12  -6.4276735713049134e-12  -2.7732263867764337e-12  4.6591052923914025e-12  9.2606564774877156e-12  7.2860284121133134e-12  1.9372946805659570e-12  -1.4102349329280845e-12  -1.9450460932435066e-12  -1.4345762021591425e-12  5.8613798569356468e-13  1.2595465025004466e-13  5.0104143342847552e-14  7.8361258347247237e-14  6.2427648491507991e-14  -3.1529135142087888e-14  -5.7653135499551516e-14  2.8511681227380687e-13  9.7221925944505948e-13  1.1070036572123474e-12  -4.1007150745079771e-13  -2.9163210755110002e-12  -3.5033547343173623e-12  -2.0477317701106374e-13  4.5582950690072207e-12  5.9408206258903271e-12  2.6268460371755392e-12  -1.4102349329280837e-12  -2.3146862784434818e-12  -1.2514978720760792e-12  -2.6952673666262210e-13  6.3906910278353613e-14  -8.0510414665610366e-14  -1.5579287262837994e-14  3.4400693813388577e-14  2.8688553681244675e-14  -2.6484265573985507e-14  -4.0585384732170046e-14  1.5793098231789704e-13  5.3759612960105315e-13  5.4988906471265488e-13  -4.0974589122154000e-13  -1.7794415562534941e-12  -1.7172249867136908e-12  6.3770765142721268e-13  3.1907854216483637e-12  2.9309725638193392e-12  6.6318100030955460e-14  -1.9450460932435050e-12  -1.2514978720760788e-12  -3.2551143734536763e-14  3.8761173941434483e-13  -5.9875965077831093e-14  -6.4939838796675604e-14  9.0021126682241378e-15  2.9413436450545206e-14  1.5579700868591281e-14  -2.1116800764986362e-14  -2.9706867522200035e-14  8.9474389365698379e-14  3.0795625529584857e-13  2.7962369813436450e-13  -3.3579727568917967e-13  -1.0908318977476149e-12  -8.0840634869317489e-13  8.0053475900768217e-13  2.0597270635899390e-12  1.2157765678606923e-12  -8.1658519869113866e-13  -1.4345762021591417e-12  -2.6952673666262190e-13  3.8761173941434488e-13  1.9960863095355623e-13  -1.2609967592451657e-11  -8.7020240291156428e-12  -7.4936919399801529e-12  -7.0341241278909727e-12  -7.4345839771023436e-12  -9.1815949171591015e-12  -1.0728482087419117e-11  -7.8365212921428559e-12  1.3605832762366357e-12  9.2718838230459135e-12  2.3896852367945181e-12  -2.1725224500893770e-11  -4.4655103329249033e-11  -4.3755416708442367e-11  -1.8552425272397614e-11  8.2045643223144374e-12  1.6959419231231696e-11  1.0274833069653539e-11  2.6071883379546757e-12  -2.2681838201767618e-13  -4.3213864361101421e-13  -8.7020240291156428e-12  -5.3155853473517370e-12  -4.4292387528463458e-12  -4.1197087599387787e-12  -4.3571832664290478e-12  -5.4836488927330581e-12  -6.5584028248548654e-12  -4.7905300982396500e-12  1.1846021808836433e-12  6.4365934651822068e-12  1.9500081098372977e-12  -1.3821168387630934e-11  -2.8312866304618079e-11  -2.6642342984754622e-11  -9.6979802777773211e-12  6.4625384862100264e-12  9.9416837495486238e-12  4.6615525672114777e-12  6.0608602157554832e-13  -2.2678507825614854e-13  -4.6571677512552583e-14  -7.4936919399801480e-12  -4.4292387528463417e-12  -3.6624961119947312e-12  -3.4235313070340903e-12  -3.6417460951790085e-12  -4.5770140072911193e-12  -5.4255653148460809e-12  -3.8904021772270942e-12  1.0708006024467786e-12  5.2826650759433451e-12  1.3433185634857050e-12  -1.1763924736905696e-11  -2.3444855798460501e-11  -2.1624255491109996e-11  -7.5904647816052851e-12  5.2191608915019497e-12  7.5819498048342252e-12  3.4006276220694841e-12  6.6603248307988836e-13  1.4933720377861788e-13  1.4410898289312209e-13  -7.0341241278909711e-12  -4.1197087599387513e-12  -3.4235313070340749e-12  -3.2203294394178024e-12  -3.4399016871768471e-12  -4.3125677684504833e-12  -5.0596684677507853e-12  -3.5444482828885025e-12  1.1169131165727111e-12  4.9297814122693956e-12  1.0351006738568022e-12  -1.1319553035778576e-11  -2.2140965683557820e-11  -2.0308384430533069e-11  -7.2304162396528721e-12  4.6002333069529656e-12  6.8311903884788405e-12  3.1907749984455683e-12  8.7690650089886143e-13  2.9661327026463147e-13  1.4313190552784036e-13  -7.4345839771023323e-12  -4.3571832664290220e-12  -3.6417460951790198e-12  -3.4399016871768879e-12  -3.6499526868611602e-12  -4.4883957603719895e-12  -5.1895380282085813e-12  -3.6812867069148172e-12  8.4841893638504225e-13  4.4515233132228984e-12  4.6873224064392978e-13  -1.1711627725953052e-11  -2.2254279409887189e-11  -2.0356679903361737e-11  -7.4872779145770004e-12  4.1586441097618138e-12  6.4838563522279881e-12  3.1065864306630913e-12  9.3887950281631315e-13  2.9679332855943688e-13  1.0230952262938763e-13  -9.1815949171590951e-12  -5.4836488927330775e-12  -4.5770140072911960e-12  -4.3125677684505705e-12  -4.4883957603720202e-12  -5.3024927913932729e-12  -6.0088967364790488e-12  -4.5683534871425869e-12  -1.7660097834916939e-13  3.2783940591738822e-12  -7.4307042170330663e-13  -1.2772702909054818e-11  -2.3036649454822943e-11  -2.0886627466090858e-11  -7.8690843851768676e-12  3.8808499695702669e-12  6.3366041192624404e-12  3.0848640701218475e-12  9.6339952153776329e-13  2.8597381948423894e-13  8.3481473362397785e-14  -1.0728482087419177e-11  -6.5584028248549461e-12  -5.4255653148461843e-12  -5.0596684677508370e-12  -5.1895380282085554e-12  -6.0088967364790052e-12  -6.7906662281369694e-12  -5.4834774366857260e-12  -1.2094702129744869e-12  2.2557551403841652e-12  -1.5459482422540488e-12  -1.3166593655792096e-11  -2.2965097322376418e-11  -2.0458495768412739e-11  -7.2785007095913904e-12  4.4698966702850053e-12  6.8383514724244414e-12  3.4663118672021105e-12  1.2143655322571876e-12  4.1886552444745916e-13  1.4843037645149283e-13  -7.8365212921429835e-12  -4.7905300982397413e-12  -3.8904021772271379e-12  -3.5444482828884585e-12  -3.6812867069147138e-12  -4.5683534871424989e-12  -5.4834774366856856e-12  -4.2876981878602171e-12  4.8708456074575125e-14  3.8567759078036365e-12  6.2903945254326878e-13  -1.0398622394755822e-11  -1.9844243738334894e-11  -1.7378421684347005e-11  -4.6039423462158054e-12  6.5394362038908622e-12  8.2883761447641948e-12  4.3990931687507496e-12  1.7686872753185490e-12  7.2268989637309692e-13  3.0361434728868885e-13  1.3605832762365113e-12  1.1846021808835918e-12  1.0708006024468085e-12  1.1169131165728125e-12  8.4841893638516221e-13  -1.7660097834908535e-13  -1.2094702129744612e-12  4.8708456074567249e-14  4.7787399243186042e-12  9.2652689975747791e-12  6.6909614071607152e-12  -4.1251039726911432e-12  -1.4054954397390678e-11  -1.2697871095802334e-11  -1.3223686052600075e-12  8.5165297095320369e-12  9.2991924870965692e-12  4.8278677393679968e-12  1.9128669340197211e-12  7.5768574652520160e-13  3.1087396817669299e-13  9.2718838230458569e-12  6.4365934651822043e-12  5.2826650759434049e-12  4.9297814122694917e-12  4.4515233132229873e-12  3.2783940591739226e-12  2.2557551403841402e-12  3.8567759078035897e-12  9.2652689975747678e-12  1.4418117449050389e-11  1.1920147183235982e-11  1.7720711386851919e-13  -1.1590386270379705e-11  -1.2403114037799343e-11  -2.8212662400357407e-12  6.0428084998567654e-12  6.6899282817661805e-12  2.6404288711302472e-12  3.5411813147826993e-13  -2.1556105642615440e-13  -2.2021470724902952e-13  2.3896852367945654e-12  1.9500081098373575e-12  1.3433185634857791e-12  1.0351006738568886e-12  4.6873224064399703e-13  -7.4307042170330199e-13  -1.5459482422541037e-12  6.2903945254322435e-13  6.6909614071607273e-12  1.1920147183236030e-11  8.3121567284847473e-12  -5.7135924689529712e-12  -2.0131785064571133e-11  -2.2819000953265895e-11  -1.3560162559439279e-11  -3.4610576562232433e-12  -6.4165657646025848e-13  -2.3653714091655457e-12  -2.7189202077331258e-12  -1.9373187323542198e-12  -1.0967160502689607e-12  -2.1725224500893583e-11  -1.3821168387630801e-11  -1.1763924736905594e-11  -1.1319553035778500e-11  -1.1711627725953000e-11  -1.2772702909054840e-11  -1.3166593655792146e-11  -1.0398622394755831e-11  -4.1251039726910793e-12  1.7720711386858704e-13  -5.7135924689529889e-12  -2.2539421965985583e-11  -3.8712982638551293e-11  -4.0844659715391953e-11  -2.8598633509681709e-11  -1.4109586208492659e-11  -6.9387335574999859e-12  -5.3808278942168457e-12  -3.7979882643590867e-12  -2.1378304649212960e-12  -1.0172067000489127e-12  -4.4655103329248717e-11  -2.8312866304617901e-11  -2.3444855798460397e-11  -2.2140965683557794e-11  -2.2254279409887205e-11  -2.3036649454822995e-11  -2.2965097322376466e-11  -1.9844243738334881e-11  -1.4054954397390618e-11  -1.1590386270379687e-11  -2.0131785064571188e-11  -3.8712982638551383e-11  -5.3929466149290219e-11  -5.1883402191919187e-11  -3.3531919484204649e-11  -1.3252744461042605e-11  -2.3884966534886111e-12  3.0834658235248902e-13  1.1867341713831347e-12  1.3912235630406674e-12  1.0957225882255620e-12  -4.3755416708442089e-11  -2.6642342984754496e-11  -2.1624255491109986e-11  -2.0308384430533120e-11  -2.0356679903361815e-11  -2.0886627466090913e-11  -2.0458495768412761e-11  -1.7378421684346983e-11  -1.2697871095802310e-11  -1.2403114037799380e-11  -2.2819000953265976e-11  -4.0844659715392018e-11  -5.1883402191919175e-11  -4.3112033264470939e-11  -1.8371694629596548e-11  5.1757815238910526e-12  1.5225967612655492e-11  1.4144388637061193e-11  1.0356679433366160e-11  6.6303991341597910e-12  3.6945656080652900e-12  -1.8552425272397491e-11  -9.6979802777773049e-12  -7.5904647816053578e-12  -7.2304162396529715e-12  -7.4872779145770731e-12  -7.8690843851768886e-12  -7.2785007095913839e-12  -4.6039423462157893e-12  -1.3223686052600156e-12  -2.8212662400357924e-12  -1.3560162559439344e-11  -2.8598633509681732e-11  -3.3531919484204617e-11  -1.8371694629596548e-11  9.3187417498709200e-12  3.0436461517521136e-11  3.3768466007807897e-11  2.4769422485611337e-11  1.4737563183284797e-11  7.5041718826855356e-12  3.2254644592401006e-12  8.2045643223144503e-12  6.4625384862099924e-12  5.2191608915018714e-12  4.6002333069528985e-12  4.1586441097617863e-12  3.8808499695702677e-12  4.4698966702849965e-12  6.5394362038908509e-12  8.5165297095320207e-12  6.0428084998567355e-12  -3.4610576562232724e-12  -1.4109586208492649e-11  -1.3252744461042545e-11  5.1757815238910518e-12  3.0436461517521123e-11  4.3658374231498397e-11  3.7185988057852218e-11  2.0731442781761638e-11  7.7249210323831911e-12  1.1230109829342735e-12  -1.0752924097392170e-12  1.6959419231231680e-11  9.9416837495485899e-12  7.5819498048341718e-12  6.8311903884788123e-12  6.4838563522279945e-12  6.3366041192624413e-12  6.8383514724244309e-12  8.2883761447641835e-12  9.2991924870965563e-12  6.6899282817661667e-12  -6.4165657646026182e-13  -6.9387335574999576e-12  -2.3884966534885711e-12  1.5225967612655486e-11  3.3768466007807884e-11  3.7185988057852224e-11  2.2955949540046281e-11  4.4053074309791447e-12  -5.3383054351655944e-12  -6.7139737882170578e-12  -4.6637056263112954e-12  1.0274833069653535e-11  4.6615525672114567e-12  3.4006276220694547e-12  3.1907749984455614e-12  3.1065864306631034e-12  3.0848640701218572e-12  3.4663118672021097e-12  4.3990931687507472e-12  4.8278677393679960e-12  2.6404288711302411e-12  -2.3653714091655461e-12  -5.3808278942168271e-12  3.0834658235251628e-13  1.4144388637061179e-11  2.476942248561