<?xml version="1.0"?>
<VTKFile type="UnstructuredGrid"  version="0.1"  >
<UnstructuredGrid>
<Piece  NumberOfPoints="9261" NumberOfCells="48000">
<Points>
<DataArray  type="Float64"  NumberOfComponents="3"  format="ascii">-2 -2 -2  -1.8 -2 -2  -1.6 -2 -2  -1.4 -2 -2  -1.2 -2 -2  -1 -2 -2  -0.8 -2 -2  -0.6000000000000001 -2 -2  -0.3999999999999999 -2 -2  -0.2 -2 -2  0 -2 -2  0.2000000000000002 -2 -2  0.3999999999999999 -2 -2  0.6000000000000001 -2 -2  0.7999999999999998 -2 -2  1 -2 -2  1.2 -2 -2  1.4 -2 -2  1.6 -2 -2  1.8 -2 -2  2 -2 -2  -2 -1.8 -2  -1.8 -1.8 -2  -1.6 -1.8 -2  -1.4 -1.8 -2  -1.2 -1.8 -2  -1 -1.8 -2  -0.8 -1.8 -2  -0.6000000000000001 -1.8 -2  -0.3999999999999999 -1.8 -2  -0.2 -1.8 -2  0 -1.8 -2  0.2000000000000002 -1.8 -2  0.3999999999999999 -1.8 -2  0.6000000000000001 -1.8 -2  0.7999999999999998 -1.8 -2  1 -1.8 -2  1.2 -1.8 -2  1.4 -1.8 -2  1.6 -1.8 -2  1.8 -1.8 -2  2 -1.8 -2  -2 -1.6 -2  -1.8 -1.6 -2  -1.6 -1.6 -2  -1.4 -1.6 -2  -1.2 -1.6 -2  -1 -1.6 -2  -0.8 -1.6 -2  -0.6000000000000001 -1.6 -2  -0.3999999999999999 -1.6 -2  -0.2 -1.6 -2  0 -1.6 -2  0.2000000000000002 -1.6 -2  0.3999999999999999 -1.6 -2  0.6000000000000001 -1.6 -2  0.7999999999999998 -1.6 -2  1 -1.6 -2  1.2 -1.6 -2  1.4 -1.6 -2  1.6 -1.6 -2  1.8 -1.6 -2  2 -1.6 -2  -2 -1.4 -2  -1.8 -1.4 -2  -1.6 -1.4 -2  -1.4 -1.4 -2  -1.2 -1.4 -2  -1 -1.4 -2  -0.8 -1.4 -2  -0.6000000000000001 -1.4 -2  -0.3999999999999999 -1.4 -2  -0.2 -1.4 -2  0 -1.4 -2  0.2000000000000002 -1.4 -2  0.3999999999999999 -1.4 -2  0.6000000000000001 -1.4 -2  0.7999999999999998 -1.4 -2  1 -1.4 -2  1.2 -1.4 -2  1.4 -1.4 -2  1.6 -1.4 -2  1.8 -1.4 -2  2 -1.4 -2  -2 -1.2 -2  -1.8 -1.2 -2  -1.6 -1.2 -2  -1.4 -1.2 -2  -1.2 -1.2 -2  -1 -1.2 -2  -0.8 -1.2 -2  -0.6000000000000001 -1.2 -2  -0.3999999999999999 -1.2 -2  -0.2 -1.2 -2  0 -1.2 -2  0.2000000000000002 -1.2 -2  0.3999999999999999 -1.2 -2  0.6000000000000001 -1.2 -2  0.7999999999999998 -1.2 -2  1 -1.2 -2  1.2 -1.2 -2  1.4 -1.2 -2  1.6 -1.2 -2  1.8 -1.2 -2  2 -1.2 -2  -2 -1 -2  -1.8 -1 -2  -1.6 -1 -2  -1.4 -1 -2  -1.2 -1 -2  -1 -1 -2  -0.8 -1 -2  -0.6000000000000001 -1 -2  -0.3999999999999999 -1 -2  -0.2 -1 -2  0 -1 -2  0.2000000000000002 -1 -2  0.3999999999999999 -1 -2  0.6000000000000001 -1 -2  0.7999999999999998 -1 -2  1 -1 -2  1.2 -1 -2  1.4 -1 -2  1.6 -1 -2  1.8 -1 -2  2 -1 -2  -2 -0.8 -2  -1.8 -0.8 -2  -1.6 -0.8 -2  -1.4 -0.8 -2  -1.2 -0.8 -2  -1 -0.8 -2  -0.8 -0.8 -2  -0.6000000000000001 -0.8 -2  -0.3999999999999999 -0.8 -2  -0.2 -0.8 -2  0 -0.8 -2  0.2000000000000002 -0.8 -2  0.3999999999999999 -0.8 -2  0.6000000000000001 -0.8 -2  0.7999999999999998 -0.8 -2  1 -0.8 -2  1.2 -0.8 -2  1.4 -0.8 -2  1.6 -0.8 -2  1.8 -0.8 -2  2 -0.8 -2  -2 -0.6000000000000001 -2  -1.8 -0.6000000000000001 -2  -1.6 -0.6000000000000001 -2  -1.4 -0.6000000000000001 -2  -1.2 -0.6000000000000001 -2  -1 -0.6000000000000001 -2  -0.8 -0.6000000000000001 -2  -0.6000000000000001 -0.6000000000000001 -2  -0.3999999999999999 -0.6000000000000001 -2  -0.2 -0.6000000000000001 -2  0 -0.6000000000000001 -2  0.2000000000000002 -0.6000000000000001 -2  0.3999999999999999 -0.6000000000000001 -2  0.6000000000000001 -0.6000000000000001 -2  0.7999999999999998 -0.6000000000000001 -2  1 -0.6000000000000001 -2  1.2 -0.6000000000000001 -2  1.4 -0.6000000000000001 -2  1.6 -0.6000000000000001 -2  1.8 -0.6000000000000001 -2  2 -0.6000000000000001 -2  -2 -0.3999999999999999 -2  -1.8 -0.3999999999999999 -2  -1.6 -0.3999999999999999 -2  -1.4 -0.3999999999999999 -2  -1.2 -0.3999999999999999 -2  -1 -0.3999999999999999 -2  -0.8 -0.3999999999999999 -2  -0.6000000000000001 -0.3999999999999999 -2  -0.3999999999999999 -0.3999999999999999 -2  -0.2 -0.3999999999999999 -2  0 -0.3999999999999999 -2  0.2000000000000002 -0.3999999999999999 -2  0.3999999999999999 -0.3999999999999999 -2  0.6000000000000001 -0.3999999999999999 -2  0.7999999999999998 -0.3999999999999999 -2  1 -0.3999999999999999 -2  1.2 -0.3999999999999999 -2  1.4 -0.3999999999999999 -2  1.6 -0.3999999999999999 -2  1.8 -0.3999999999999999 -2  2 -0.3999999999999999 -2  -2 -0.2 -2  -1.8 -0.2 -2  -1.6 -0.2 -2  -1.4 -0.2 -2  -1.2 -0.2 -2  -1 -0.2 -2  -0.8 -0.2 -2  -0.6000000000000001 -0.2 -2  -0.3999999999999999 -0.2 -2  -0.2 -0.2 -2  0 -0.2 -2  0.2000000000000002 -0.2 -2  0.3999999999999999 -0.2 -2  0.6000000000000001 -0.2 -2  0.7999999999999998 -0.2 -2  1 -0.2 -2  1.2 -0.2 -2  1.4 -0.2 -2  1.6 -0.2 -2  1.8 -0.2 -2  2 -0.2 -2  -2 0 -2  -1.8 0 -2  -1.6 0 -2  -1.4 0 -2  -1.2 0 -2  -1 0 -2  -0.8 0 -2  -0.6000000000000001 0 -2  -0.3999999999999999 0 -2  -0.2 0 -2  0 0 -2  0.2000000000000002 0 -2  0.3999999999999999 0 -2  0.6000000000000001 0 -2  0.7999999999999998 0 -2  1 0 -2  1.2 0 -2  1.4 0 -2  1.6 0 -2  1.8 0 -2  2 0 -2  -2 0.2000000000000002 -2  -1.8 0.2000000000000002 -2  -1.6 0.2000000000000002 -2  -1.4 0.2000000000000002 -2  -1.2 0.2000000000000002 -2  -1 0.2000000000000002 -2  -0.8 0.2000000000000002 -2  -0.6000000000000001 0.2000000000000002 -2  -0.3999999999999999 0.2000000000000002 -2  -0.2 0.2000000000000002 -2  0 0.2000000000000002 -2  0.2000000000000002 0.2000000000000002 -2  0.3999999999999999 0.2000000000000002 -2  0.6000000000000001 0.2000000000000002 -2  0.7999999999999998 0.2000000000000002 -2  1 0.2000000000000002 -2  1.2 0.2000000000000002 -2  1.4 0.2000000000000002 -2  1.6 0.2000000000000002 -2  1.8 0.2000000000000002 -2  2 0.2000000000000002 -2  -2 0.3999999999999999 -2  -1.8 0.3999999999999999 -2  -1.6 0.3999999999999999 -2  -1.4 0.3999999999999999 -2  -1.2 0.3999999999999999 -2  -1 0.3999999999999999 -2  -0.8 0.3999999999999999 -2  -0.6000000000000001 0.3999999999999999 -2  -0.3999999999999999 0.3999999999999999 -2  -0.2 0.3999999999999999 -2  0 0.3999999999999999 -2  0.2000000000000002 0.3999999999999999 -2  0.3999999999999999 0.3999999999999999 -2  0.6000000000000001 0.3999999999999999 -2  0.7999999999999998 0.3999999999999999 -2  1 0.3999999999999999 -2  1.2 0.3999999999999999 -2  1.4 0.3999999999999999 -2  1.6 0.3999999999999999 -2  1.8 0.3999999999999999 -2  2 0.3999999999999999 -2  -2 0.6000000000000001 -2  -1.8 0.6000000000000001 -2  -1.6 0.6000000000000001 -2  -1.4 0.6000000000000001 -2  -1.2 0.6000000000000001 -2  -1 0.6000000000000001 -2  -0.8 0.6000000000000001 -2  -0.6000000000000001 0.6000000000000001 -2  -0.3999999999999999 0.6000000000000001 -2  -0.2 0.6000000000000001 -2  0 0.6000000000000001 -2  0.2000000000000002 0.6000000000000001 -2  0.3999999999999999 0.6000000000000001 -2  0.6000000000000001 0.6000000000000001 -2  0.7999999999999998 0.6000000000000001 -2  1 0.6000000000000001 -2  1.2 0.6000000000000001 -2  1.4 0.6000000000000001 -2  1.6 0.6000000000000001 -2  1.8 0.6000000000000001 -2  2 0.6000000000000001 -2  -2 0.7999999999999998 -2  -1.8 0.7999999999999998 -2  -1.6 0.7999999999999998 -2  -1.4 0.7999999999999998 -2  -1.2 0.7999999999999998 -2  -1 0.7999999999999998 -2  -0.8 0.7999999999999998 -2  -0.6000000000000001 0.7999999999999998 -2  -0.3999999999999999 0.7999999999999998 -2  -0.2 0.7999999999999998 -2  0 0.7999999999999998 -2  0.2000000000000002 0.7999999999999998 -2  0.3999999999999999 0.7999999999999998 -2  0.6000000000000001 0.7999999999999998 -2  0.7999999999999998 0.7999999999999998 -2  1 0.7999999999999998 -2  1.2 0.7999999999999998 -2  1.4 0.7999999999999998 -2  1.6 0.7999999999999998 -2  1.8 0.7999999999999998 -2  2 0.7999999999999998 -2  -2 1 -2  -1.8 1 -2  -1.6 1 -2  -1.4 1 -2  -1.2 1 -2  -1 1 -2  -0.8 1 -2  -0.6000000000000001 1 -2  -0.3999999999999999 1 -2  -0.2 1 -2  0 1 -2  0.2000000000000002 1 -2  0.3999999999999999 1 -2  0.6000000000000001 1 -2  0.7999999999999998 1 -2  1 1 -2  1.2 1 -2  1.4 1 -2  1.6 1 -2  1.8 1 -2  2 1 -2  -2 1.2 -2  -1.8 1.2 -2  -1.6 1.2 -2  -1.4 1.2 -2  -1.2 1.2 -2  -1 1.2 -2  -0.8 1.2 -2  -0.6000000000000001 1.2 -2  -0.3999999999999999 1.2 -2  -0.2 1.2 -2  0 1.2 -2  0.2000000000000002 1.2 -2  0.3999999999999999 1.2 -2  0.6000000000000001 1.2 -2  0.7999999999999998 1.2 -2  1 1.2 -2  1.2 1.2 -2  1.4 1.2 -2  1.6 1.2 -2  1.8 1.2 -2  2 1.2 -2  -2 1.4 -2  -1.8 1.4 -2  -1.6 1.4 -2  -1.4 1.4 -2  -1.2 1.4 -2  -1 1.4 -2  -0.8 1.4 -2  -0.6000000000000001 1.4 -2  -0.3999999999999999 1.4 -2  -0.2 1.4 -2  0 1.4 -2  0.2000000000000002 1.4 -2  0.3999999999999999 1.4 -2  0.6000000000000001 1.4 -2  0.7999999999999998 1.4 -2  1 1.4 -2  1.2 1.4 -2  1.4 1.4 -2  1.6 1.4 -2  1.8 1.4 -2  2 1.4 -2  -2 1.6 -2  -1.8 1.6 -2  -1.6 1.6 -2  -1.4 1.6 -2  -1.2 1.6 -2  -1 1.6 -2  -0.8 1.6 -2  -0.6000000000000001 1.6 -2  -0.3999999999999999 1.6 -2  -0.2 1.6 -2  0 1.6 -2  0.2000000000000002 1.6 -2  0.3999999999999999 1.6 -2  0.6000000000000001 1.6 -2  0.7999999999999998 1.6 -2  1 1.6 -2  1.2 1.6 -2  1.4 1.6 -2  1.6 1.6 -2  1.8 1.6 -2  2 1.6 -2  -2 1.8 -2  -1.8 1.8 -2  -1.6 1.8 -2  -1.4 1.8 -2  -1.2 1.8 -2  -1 1.8 -2  -0.8 1.8 -2  -0.6000000000000001 1.8 -2  -0.3999999999999999 1.8 -2  -0.2 1.8 -2  0 1.8 -2  0.2000000000000002 1.8 -2  0.3999999999999999 1.8 -2  0.6000000000000001 1.8 -2  0.7999999999999998 1.8 -2  1 1.8 -2  1.2 1.8 -2  1.4 1.8 -2  1.6 1.8 -2  1.8 1.8 -2  2 1.8 -2  -2 2 -2  -1.8 2 -2  -1.6 2 -2  -1.4 2 -2  -1.2 2 -2  -1 2 -2  -0.8 2 -2  -0.6000000000000001 2 -2  -0.3999999999999999 2 -2  -0.2 2 -2  0 2 -2  0.2000000000000002 2 -2  0.3999999999999999 2 -2  0.6000000000000001 2 -2  0.7999999999999998 2 -2  1 2 -2  1.2 2 -2  1.4 2 -2  1.6 2 -2  1.8 2 -2  2 2 -2  -2 -2 -1.8  -1.8 -2 -1.8  -1.6 -2 -1.8  -1.4 -2 -1.8  -1.2 -2 -1.8  -1 -2 -1.8  -0.8 -2 -1.8  -0.6000000000000001 -2 -1.8  -0.3999999999999999 -2 -1.8  -0.2 -2 -1.8  0 -2 -1.8  0.2000000000000002 -2 -1.8  0.3999999999999999 -2 -1.8  0.6000000000000001 -2 -1.8  0.7999999999999998 -2 -1.8  1 -2 -1.8  1.2 -2 -1.8  1.4 -2 -1.8  1.6 -2 -1.8  1.8 -2 -1.8  2 -2 -1.8  -2 -1.8 -1.8  -1.8 -1.8 -1.8  -1.6 -1.8 -1.8  -1.4 -1.8 -1.8  -1.2 -1.8 -1.8  -1 -1.8 -1.8  -0.8 -1.8 -1.8  -0.6000000000000001 -1.8 -1.8  -0.3999999999999999 -1.8 -1.8  -0.2 -1.8 -1.8  0 -1.8 -1.8  0.2000000000000002 -1.8 -1.8  0.3999999999999999 -1.8 -1.8  0.6000000000000001 -1.8 -1.8  0.7999999999999998 -1.8 -1.8  1 -1.8 -1.8  1.2 -1.8 -1.
[...]
<PointData  Scalars="uA"> 
<DataArray  type="Float64"  Name="uA"  format="ascii">-3.6059153414371991e-16  -3.1536583314639257e-16  -1.9009657362209237e-16  -9.2882613240464255e-17  -4.6948801164948275e-17  -3.3163124345672195e-17  -3.1779184442332354e-17  -3.3287606660155243e-17  -3.4792834159647329e-17  -3.3348177657521358e-17  -2.9588127910758014e-17  -5.7749460746449290e-17  -3.4548010921616442e-17  1.2441813672321273e-16  -2.5346945021172726e-16  -4.9328357778680128e-16  9.0835980390194967e-16  3.2508369939286698e-16  -7.9573773399135772e-16  -6.4417824820506028e-16  -2.5203545741879740e-16  -3.1536583314638897e-16  -1.7195702227706801e-16  -2.7095130454728038e-17  3.1792020474570272e-17  3.7931854397169647e-17  2.8939999708339248e-17  2.0993431454276615e-17  1.6713256777527148e-17  1.4826733284440645e-17  1.5741053999154558e-17  1.8133548443117537e-17  -8.4203872388347878e-19  1.6680192909314184e-17  1.0873095682060972e-16  -1.6398160634740708e-16  -1.7208107228569251e-16  8.0264507256777660e-16  -1.8953304126704306e-16  -6.9980731190922652e-16  -7.8334281642470652e-17  3.5754447715704392e-16  -1.9009657362208699e-16  -2.7095130454728719e-17  6.0674525116818954e-17  6.7292772767299316e-17  4.7810099628045397e-17  3.1467033651567354e-17  2.3294482938832347e-17  2.0187115544902302e-17  1.9146954854284520e-17  2.0348940642214766e-17  2.3181929334418036e-17  5.8113998869156496e-18  1.4319983529997775e-17  9.8733888279471976e-17  -9.5038561671604221e-17  -1.0432398392272458e-16  5.7493683004791493e-16  -3.4100356188803028e-16  -3.7633892508156202e-16  2.0729800620891220e-16  3.4401177583502743e-16  -9.2882613240471527e-17  3.1792020474561712e-17  6.7292772767295779e-17  4.8707468041277471e-17  2.5097969978348818e-17  1.2090646800203839e-17  7.4648719450573903e-18  6.3926382245428342e-18  6.2314598773124222e-18  7.7560859113758320e-18  1.0769187673272844e-17  -6.8910350788837205e-18  -1.0119648523794125e-18  8.8333124423500329e-17  -8.0676757914053174e-17  -1.2773468917606991e-16  4.5031960364224649e-16  -3.3518973052220312e-16  -1.7184670598893457e-16  2.2655930728562429e-16  1.7693770231763534e-16  -4.6948801164961963e-17  3.7931854397164575e-17  4.7810099628047974e-17  2.5097969978353071e-17  6.4977884716750729e-18  -1.2197882057793067e-18  -2.7603152363866048e-18  -2.4990427043781053e-18  -2.1878656411834539e-18  -5.0080962798594251e-19  2.5428500822057365e-18  -1.5333993025005474e-17  -9.6623539137807105e-18  8.2749133878205511e-17  -8.2511749697788067e-17  -1.5131899903548141e-16  4.0726889598292913e-16  -3.0134011961135639e-16  -8.7986315176616440e-17  1.6687312992710360e-16  7.2366252860128650e-17  -3.3163124345675012e-17  2.8939999708346150e-17  3.1467033651575249e-17  1.2090646800207412e-17  -1.2197882057809755e-18  -5.4334626795771410e-18  -5.3675792961483980e-18  -4.5330644686958359e-18  -4.0144248497066657e-18  -2.2194812318087165e-18  8.1280538428100854e-19  -1.7215142642694506e-17  -1.1479836569239164e-17  8.1882681381941273e-17  -8.3959947673919742e-17  -1.6058894449808163e-16  3.9917512288230620e-16  -2.7783723109272677e-16  -6.3231634126520619e-17  1.1877413589702956e-16  3.7802761505695804e-17  -3.1779184442321341e-17  2.0993431454287181e-17  2.3294482938834791e-17  7.4648719450537618e-18  -2.7603152363920436e-18  -5.3675792961498933e-18  -4.6943514179269346e-18  -3.6267759834391187e-18  -2.9303017210416781e-18  -1.0793493175033178e-18  1.6975373878405733e-18  -1.6712067789362505e-17  -1.0973432055480720e-17  8.2825374416980578e-17  -8.3407450859491701e-17  -1.6198092520537003e-16  4.0059245894259124e-16  -2.6649544648190595e-16  -5.8399744291802125e-17  9.5307629504295385e-17  3.4432034405025368e-17  -3.3287606660142060e-17  1.6713256777529915e-17  2.0187115544896509e-17  6.3926382245371488e-18  -2.4990427043798394e-18  -4.5330644686928553e-18  -3.6267759834363638e-18  -2.3470094861563511e-18  -1.5293597684964691e-18  -8.0925568782034914e-20  1.7815615926326610e-18  -1.7025510472055152e-17  -1.0426196514351580e-17  8.4578312131334996e-17  -8.1521171212190121e-17  -1.6081266456943006e-16  4.0274006017319727e-16  -2.6215794789044323e-16  -5.8312540175297814e-17  8.6705476343231806e-17  3.8218171853215308e-17  -3.4792834159644648e-17  1.4826733284433302e-17  1.9146954854277426e-17  6.2314598773126094e-18  -2.1878656411788555e-18  -4.0144248497019957e-18  -2.9303017210409705e-18  -1.5293597684984656e-18  -1.1845502053214491e-18  -1.1722684942524497e-18  -2.8265971586230163e-19  -1.7272701945323069e-17  -6.9782499323135794e-18  8.9603932814038610e-17  -7.8325687932515235e-17  -1.6014614303684174e-16  4.0281959850853109e-16  -2.6149648846925298e-16  -5.8945891966049563e-17  8.4275361859230456e-17  4.1425705238475535e-17  -3.3348177657529074e-17  1.5741053999145951e-17  2.0348940642215151e-17  7.7560859113829934e-18  -5.0080962798101926e-19  -2.2194812318095793e-18  -1.0793493175079648e-18  -8.0925568785567310e-20  -1.1722684942524984e-18  -2.4508977954104203e-18  1.2093998143809738e-18  -8.2050993744955370e-18  6.4286019521175085e-18  9.7230807405376043e-17  -8.0555231397462452e-17  -1.6674575487357651e-16  3.9831363677334269e-16  -2.6253076177213334e-16  -5.8724177514467667e-17  8.4447903562192425e-17  4.3417464730760527e-17  -2.9588127910763715e-17  1.8133548443117174e-17  2.3181929334425697e-17  1.0769187673278463e-17  2.5428500822026331e-18  8.1280538427359727e-19  1.6975373878365044e-18  1.7815615926342083e-18  -2.8265971585841270e-19  1.2093998143831463e-18  1.4548637829749130e-17  1.2218526049617332e-17  1.4158173645574082e-17  7.8016127602449455e-17  -1.1226139590876386e-16  -1.8718725816256402e-16  3.9539993903282171e-16  -2.5686075548661729e-16  -5.3432010544930268e-17  8.6887102147864223e-17  4.4719332165888514e-17  -5.7749460746447589e-17  -8.4203872387830612e-19  5.8113998869218164e-18  -6.8910350788862550e-18  -1.5333993025013695e-17  -1.7215142642697988e-17  -1.6712067789357467e-17  -1.7025510472048049e-17  -1.7272701945319870e-17  -8.2050993744962935e-18  1.2218526049615131e-17  -6.8012728655977018e-18  -4.9864745976130396e-17  -9.1025383568830191e-18  -1.5883453385698355e-16  -1.7107194706802626e-16  4.3833739624676805e-16  -2.2539499491180608e-16  -4.2365760795437686e-17  8.6575561283188060e-17  4.1926488337971252e-17  -3.4548010921611986e-17  1.6680192909317247e-17  1.4319983529997063e-17  -1.0119648523871539e-18  -9.6623539137849892e-18  -1.1479836569233824e-17  -1.0973432055472719e-17  -1.0426196514350554e-17  -6.9782499323187779e-18  6.4286019521122916e-18  1.4158173645571254e-17  -4.9864745976130205e-17  -1.2070826745128376e-16  -3.9341138709287980e-18  -1.3889078660120457e-17  1.9911654429384919e-17  5.5111361016735195e-16  -2.1003659174714939e-16  -7.0866035261907508e-17  5.9325665973701171e-17  2.6576670209887300e-17  1.2441813672321202e-16  1.0873095682060640e-16  9.8733888279466540e-17  8.8333124423494782e-17  8.2749133878208827e-17  8.1882681381948557e-17  8.2825374416980652e-17  8.4578312131327551e-17  8.9603932814032891e-17  9.7230807405376696e-17  7.8016127602452882e-17  -9.1025383568795047e-18  -3.9341138709274236e-18  2.9386721360110427e-16  3.3650078176619873e-16  1.3699256873504218e-16  3.9170836498776916e-16  -4.4501895730835864e-16  -2.2096266974686159e-16  9.3011006939200537e-18  2.4571737946184436e-17  -2.5346945021173224e-16  -1.6398160634741105e-16  -9.5038561671605379e-17  -8.0676757914050166e-17  -8.2511749697780462e-17  -8.3959947673917745e-17  -8.3407450859499023e-17  -8.1521171212195224e-17  -7.8325687932511895e-17  -8.0555231397456215e-17  -1.1226139590876137e-16  -1.5883453385698473e-16  -1.3889078660122996e-17  3.3650078176619621e-16  5.5089393685744577e-17  -6.1273817921997789e-16  -3.6077666384425880e-16  -7.7767223228244495e-16  -1.8328997131081784e-16  1.6485061107773203e-16  1.5710061265909975e-16  -4.9328357778680630e-16  -1.7208107228569320e-16  -1.0432398392272039e-16  -1.2773468917606491e-16  -1.5131899903548003e-16  -1.6058894449808876e-16  -1.6198092520537671e-16  -1.6081266456942587e-16  -1.6014614303683425e-16  -1.6674575487357471e-16  -1.8718725816256732e-16  -1.7107194706802981e-16  1.9911654429383341e-17  1.3699256873504269e-16  -6.1273817921997562e-16  -1.2272553620561342e-15  -8.8018166423748459e-17  1.9502145164781969e-16  7.1589232051660653e-16  6.1992612837924031e-16  2.9399819444244098e-16  9.0835980390194572e-16  8.0264507256777818e-16  5.7493683004791789e-16  4.5031960364224413e-16  4.0726889598292129e-16  3.9917512288229965e-16  4.0059245894259671e-16  4.0274006017320960e-16  4.0281959850853424e-16  3.9831363677333771e-16  3.9539993903281757e-16  4.3833739624676894e-16  5.5111361016735520e-16  3.9170836498777178e-16  -3.6077666384425727e-16  -8.8018166423749864e-17  1.9364638846398432e-15  1.6019006416278048e-15  7.9998039549386850e-16  -1.8856118504736990e-17  -4.1842082246413168e-16  3.2508369939286871e-16  -1.8953304126703855e-16  -3.4100356188802954e-16  -3.3518973052220697e-16  -3.0134011961135916e-16  -2.7783723109272017e-16  -2.6649544648189451e-16  -2.6215794789044190e-16  -2.6149648846926541e-16  -2.6253076177214389e-16  -2.5686075548661897e-16  -2.2539499491180371e-16  -2.1003659174714717e-16  -4.4501895730835726e-16  -7.7767223228244613e-16  1.9502145164781688e-16  1.6019006416278030e-15  -6.3417069466351807e-16  -1.9794915514576701e-15  -1.7344849322827142e-15  -1.0336847993263706e-15  -7.9573773399135279e-16  -6.9980731190922327e-16  -3.7633892508156281e-16  -1.7184670598893716e-16  -8.7986315176614344e-17  -6.3231634126512040e-17  -5.8399744291800535e-17  -5.8312540175307749e-17  -5.8945891966059978e-17  -5.8724177514466139e-17  -5.3432010544922978e-17  -4.2365760795433668e-17  -7.0866035261907187e-17  -2.2096266974686433e-16  -1.8328997131082006e-16  7.1589232051660436e-16  7.9998039549386900e-16  -1.9794915514576697e-15  -1.4414198933075183e-15  4.7248519892788319e-16  1.4399584732987383e-15  -6.4417824820505663e-16  -7.8334281642470110e-17  2.0729800620891028e-16  2.2655930728562286e-16  1.6687312992710670e-16  1.1877413589703287e-16  9.5307629504289086e-17  8.6705476343223018e-17  8.4275361859230358e-17  8.4447903562201127e-17  8.6887102147869881e-17  8.6575561283187555e-17  5.9325665973698952e-17  9.3011006939176671e-18  1.6485061107773230e-16  6.1992612837924199e-16  -1.8856118504735388e-17  -1.7344849322827138e-15  4.7248519892788300e-16  1.8009976504314563e-15  1.0800179165202426e-15  -2.5203545741879503e-16  3.5754447715704304e-16  3.4401177583502561e-16  1.7693770231763519e-16  7.2366252860131079e-17  3.7802761505695237e-17  3.4432034405018404e-17  3.8218171853212960e-17  4.1425705238481273e-17  4.3417464730767590e-17  4.4719332165888089e-17  4.1926488337967190e-17  2.6576670209885097e-17  2.4571737946183721e-17  1.5710061265910140e-16  2.9399819444244221e-16  -4.1842082246413089e-16  -1.0336847993263706e-15  1.4399584732987381e-15  1.0800179165202418e-15  -1.0251953118103662e-15  -1.8974473832100271e-15  -1.1758868868161807e-15  -5.2355003373316718e-16  -1.7170572994992862e-16  -5.6285947112996600e-17  -4.3936908735612688e-17  -5.6184849022932016e-17  -6.7044504771821629e-17  -7.2011911281209272e-17  -6.8018713185109011e-17  -7.1246187656705920e-17  -1.4285981800280200e-16  1.5293391540245997e-17  3.0718803830922991e-16  -1.1184506709098482e-15  -8.4990319363588504e-16  3.7956956294158601e-15  -3.8840555418231988e-16  -3.6890035446502861e-15  -1.4969047758971122e-15  2.2369303194472479e-16  -1.1758868868161679e-15  -3.0940568175907173e-16  1.6020976434326670e-16  2.5905110158335796e-16  2.1376495764660459e-16  1.5748756420729299e-16  1.2472525758151361e-16  1.1067994828806867e-16  1.0636411961180816e-16  1.0871428412645785e-16  1.0603007792351311e-16  6.5676409640727692e-17  1.6077361730766066e-16  2.8356641912885740e-16  -5.3852037690129298e-16  6.3916436451692813e-17  2.5199406943292248e-15  -1.6401914067200628e-15  -2.0701041145057304e-15  6.8469763697742944e-16  1.4934495900715147e-15  -5.2355003373316264e-16  1.6020976434325913e-16  3.4674287218049478e-16  2.7217054460630067e-16  1.6807763012237907e-16  1.0734829299591686e-16  8.3183637507443976e-17  7.6137574351347826e-17  7.5277179470884579e-17  7.8820990951953681e-17  7.7732323924406295e-17  3.8784839481643273e-17  1.0831662794435307e-16  2.4505481654688744e-16  -3.5961273106710091e-16  4.2821245710947526e-17  1.6745566827363801e-15  -1.7142181062997501e-15  -7.6188943652960006e-16  1.2299113234769929e-15  9.7102888738502621e-16  -1.7170572994996676e-16  2.5905110158333233e-16  2.7217054460629431e-16  1.4815252376575317e-16  5.6312051734729608e-17  1.8158179042459149e-17  8.9459303392725049e-18  8.9048506256269679e-18  1.0665169662108624e-17  1.5055592251807402e-17  1.4225721987715342e-17  -2.5977355731323792e-17  3.9840966056113418e-17  1.9749193039212883e-16  -3.6576913452379153e-16  -1.1828554393073559e-16  1.3311707596128860e-15  -1.5167249507623191e-15  -1.6926222831496294e-16  9.8117854521503457e-16  3.4342324407282848e-16  -5.6285947113034219e-17  2.1376495764660215e-16  1.6807763012239504e-16  5.6312051734743080e-17  -6.7411453023304919e-18  -2.4412871766061618e-17  -2.3709754621065702e-17  -2.0033854993747274e-17  -1.7133354027469144e-17  -1.2448492666923660e-17  -1.3337902054695344e-17  -5.3959903211612310e-17  1.2604830794357858e-17  1.7789213081837774e-16  -3.8710754638898244e-16  -2.0155086817444182e-16  1.2472195431788813e-15  -1.3591876250221346e-15  1.2092302707154474e-17  6.6473318961185290e-16  6.5617962560818406e-17  -4.3936908735598575e-17  1.5748756420732482e-16  1.0734829299593878e-16  1.8158179042462912e-17  -2.4412871766070570e-17  -3.1043794288374484e-17  -2.6001014941168993e-17  -2.0997105026065788e-17  -1.7731775071689677e-17  -1.2978018709018908e-17  -1.4038914187265637e-17  -5.4880882509328033e-17  1.2250113227926778e-17  1.7914392676281451e-16  -3.9054678408716881e-16  -2.2183980656151953e-16  1.2480382756945427e-15  -1.2779177492138075e-15  4.6006778296095273e-17  4.8574253940157319e-16  1.3576140967537438e-17  -5.6184849022882984e-17  1.2472525758154048e-16  8.3183637507440266e-17  8.9459303392554134e-18  -2.3709754621081387e-17  -2.6001014941170251e-17  -1.9570667090070637e-17  -1.4165314334314749e-17  -1.0759109759222477e-17  -6.2136529709131255e-18  -7.8847641846626548e-18  -4.9092741596079787e-17  1.8602332733532347e-17  1.8622322982072560e-16  -3.8531180240193489e-16  -2.1958921854847269e-16  1.2619738662799804e-15  -1.2440624162429146e-15  4.5645293996338941e-17  4.1480872397867970e-16  3.2171463371556401e-17  -6.7044504771786907e-17  1.1067994828806311e-16  7.6137574351324703e-17  8.9048506256142244e-18  -2.0033854993745656e-17  -2.0997105026053043e-17  -1.4165314334307177e-17  -8.5809878279837433e-18  -5.4052929943692314e-18  -1.9331501467234457e-18  -4.7457292648983362e-18  -4.5291328922504842e-17  2.4880555886454591e-17  1.9404852029297080e-16  -3.7865805889331313e-16  -2.1436594438732320e-16  1.2707414753187445e-15  -1.2322636653103292e-15  4.2246852167618563e-17  3.9362282960207327e-16  5.4514075045321658e-17  -7.2011911281217764e-17  1.0636411961177908e-16  7.5277179470869763e-17  1.0665169662118136e-17  -1.7133354027453194e-17  -1.7731775071679376e-17  -1.0759109759225343e-17  -5.4052929943767672e-18  -3.5354393757364420e-18  -1.9911380828309024e-18  -4.0403190448299391e-18  -3.8916492944201403e-17  3.6825364180862128e-17  2.0456550538462670e-16  -3.7465604988896135e-16  -2.1457960557113061e-16  1.2716503273763301e-15  -1.2297346310492597e-15  4.0690373487324562e-17  3.8945574802929120e-16  6.7230294027876852e-17  -6.8018713185140491e-17  1.0871428412643805e-16  7.8820990951965550e-17  1.5055592251830245e-17  -1.2448492666916445e-17  -1.2978018709028431e-17  -6.2136529709281778e-18  -1.9331501467304175e-18  -1.9911380828279685e-18  3.2819160132820993e-19  7.1487255944827521e-18  -1.5750150411922510e-17  5.7744988939444544e-17  2.0520017258271828e-16  -3.9134940784010160e-16  -2.3081216309206481e-16  1.2660993240125488e-15  -1.2277301345375724e-15  4.3114811499695125e-17  3.9090699667523766e-16  7.3100955484116155e-17  -7.1246187656716003e-17  1.0603007792352185e-16  7.7732323924431699e-17  1.4225721987722919e-17  -1.3337902054713361e-17  -1.4038914187286647e-17  -7.8847641846670120e-18  -4.7457292648873345e-18  -4.0403190448172017e-18  7.1487255944873882e-18  2.9449776608903750e-17  3.4422145946197525e-18  3.3978876967195251e-17  1.3400201691145757e-16  -4.5809001604944376e-16  -2.5151156312832341e-16  1.2817775215375922e-15  -1.2059986887758781e-15  5.4900889077596347e-17  3.9409289330822673e-16  7.4323429959942892e-17  -1.4285981800278900e-16  6.5676409640744197e-17  3.8784839481654126e-17  -2.5977355731341242e-17  -5.3959903211635600e-17  -5.4880882509327983e-17  -4.9092741596057606e-17  -4.5291328922485558e-17  -3.8916492944198161e-17  -1.5750150411929475e-17  3.4422145946119925e-18  -7.8147226449899256e-17  -1.2633839029764779e-16  -1.0320058515236156e-17  -4.6187657641540061e-16  -1.3446205837054197e-16  1.4018271264295004e-15  -1.1501751654885841e-15  5.9125743506997427e-17  3.8198270190080995e-16  6.5246433445092258e-17  1.5293391540256826e-17  1.6077361730766340e-16  1.0831662794434299e-16  3.9840966056089000e-17  1.2604830794354459e-17  1.2250113227949479e-17  1.8602332733551705e-17  2.4880555886447722e-17  3.6825364180841550e-17  5.7744988939430061e-17  3.3978876967190062e-17  -1.2633839029764480e-16  -1.4997637745813045e-16  2.1299932445567055e-16  1.8041802061601308e-17  2.8402799329511881e-16  1.5328256159718195e-15  -1.2302464849838296e-15  -5.7387427182712183e-17  3.1478504604707671e-16  4.4636072702312304e-17  3.0718803830921857e-16  2.8356641912884325e-16  2.4505481654687181e-16  1.9749193039211936e-16  1.7789213081839524e-16  1.7914392676283317e-16  1.8622322982071591e-16  1.9404852029294543e-16  2.0456550538461558e-16  2.0520017258272726e-16  1.3400201691147068e-16  -1.0320058515225472e-17  2.1299932445567373e-16  9.0218540038149315e-16  5.4424908701987104e-16  7.4068524914220382e-17  7.9938840349515735e-16  -1.8739219265899120e-15  -3.3902283024513322e-16  2.8792665665115696e-16  9.6111308209980013e-17  -1.1184506709098656e-15  -5.3852037690130137e-16  -3.5961273106709781e-16  -3.6576913452377812e-16  -3.8710754638896134e-16  -3.9054678408717048e-16  -3.8531180240195905e-16  -3.7865805889332038e-16  -3.7465604988894350e-16  -3.9134940784008232e-16  -4.5809001604944110e-16  -4.6187657641540692e-16  1.8041802061592587e-17  5.4424908701986630e-16  -8.0191874607545324e-16  -2.0981699715762174e-15  -7.5012065072782973e-16  -2.0921505433922587e-15  2.0011696268977715e-16  8.3636116127397795e-16  3.8370640371771891e-16  -8.4990319363589806e-16  6.3916436451697447e-17  4.2821245710962440e-17  -1.1828554393072484e-16  -2.0155086817444482e-16  -2.2183980656154265e-16  -2.1958921854848447e-16  -2.1436594438730237e-16  -2.1457960557111121e-16  -2.3081216309206782e-16  -2.5151156312833647e-16  -1.3446205837055139e-16  2.8402799329511822e-16  7.4068524914225165e-17  -2.0981699715762099e-15  -2.4412557040761868e-15  1.4802987620254276e-15  1.2385972270372707e-15  2.4693664233132040e-15  1.5976979858982419e-15  3.2920718426714989e-16  3.7956956294158569e-15  2.5199406943292343e-15  1.6745566827363861e-15  1.3311707596128742e-15  1.2472195431788589e-15  1.2480382756945328e-15  1.2619738662800061e-15  1.2707414753187761e-15  1.2716503273763254e-15  1.2660993240125283e-15  1.2817775215375827e-15  1.4018271264295056e-15  1.5328256159718326e-15  7.9938840349516504e-16  -7.5012065072782805e-16  1.4802987620254213e-15  6.6779494447098740e-15  3.3352716233777485e-15  8.5505429652056379e-16  -1.0899892467221488e-15  -1.5325557985975838e-15  -3.8840555418230480e-16  -1.6401914067200486e-15  -1.7142181062997523e-15  -1.5167249507623302e-15  -1.3591876250221348e-15  -1.2779177492137759e-15  -1.2440624162428862e-15  -1.2322636653103426e-15  -1.2297346310493084e-15  -1.2277301345375998e-15  -1.2059986887758746e-15  -1.1501751654885756e-15  -1.2302464849838290e-15  -1.8739219265899124e-15  -2.0921505433922654