<?xml version="1.0"?>
<VTKFile type="UnstructuredGrid"  version="0.1"  >
<UnstructuredGrid>
<Piece  NumberOfPoints="9261" NumberOfCells="48000">
<Points>
<DataArray  type="Float64"  NumberOfComponents="3"  format="ascii">-2 -2 -2  -1.8 -2 -2  -1.6 -2 -2  -1.4 -2 -2  -1.2 -2 -2  -1 -2 -2  -0.8 -2 -2  -0.6000000000000001 -2 -2  -0.3999999999999999 -2 -2  -0.2 -2 -2  0 -2 -2  0.2000000000000002 -2 -2  0.3999999999999999 -2 -2  0.6000000000000001 -2 -2  0.7999999999999998 -2 -2  1 -2 -2  1.2 -2 -2  1.4 -2 -2  1.6 -2 -2  1.8 -2 -2  2 -2 -2  -2 -1.8 -2  -1.8 -1.8 -2  -1.6 -1.8 -2  -1.4 -1.8 -2  -1.2 -1.8 -2  -1 -1.8 -2  -0.8 -1.8 -2  -0.6000000000000001 -1.8 -2  -0.3999999999999999 -1.8 -2  -0.2 -1.8 -2  0 -1.8 -2  0.2000000000000002 -1.8 -2  0.3999999999999999 -1.8 -2  0.6000000000000001 -1.8 -2  0.7999999999999998 -1.8 -2  1 -1.8 -2  1.2 -1.8 -2  1.4 -1.8 -2  1.6 -1.8 -2  1.8 -1.8 -2  2 -1.8 -2  -2 -1.6 -2  -1.8 -1.6 -2  -1.6 -1.6 -2  -1.4 -1.6 -2  -1.2 -1.6 -2  -1 -1.6 -2  -0.8 -1.6 -2  -0.6000000000000001 -1.6 -2  -0.3999999999999999 -1.6 -2  -0.2 -1.6 -2  0 -1.6 -2  0.2000000000000002 -1.6 -2  0.3999999999999999 -1.6 -2  0.6000000000000001 -1.6 -2  0.7999999999999998 -1.6 -2  1 -1.6 -2  1.2 -1.6 -2  1.4 -1.6 -2  1.6 -1.6 -2  1.8 -1.6 -2  2 -1.6 -2  -2 -1.4 -2  -1.8 -1.4 -2  -1.6 -1.4 -2  -1.4 -1.4 -2  -1.2 -1.4 -2  -1 -1.4 -2  -0.8 -1.4 -2  -0.6000000000000001 -1.4 -2  -0.3999999999999999 -1.4 -2  -0.2 -1.4 -2  0 -1.4 -2  0.2000000000000002 -1.4 -2  0.3999999999999999 -1.4 -2  0.6000000000000001 -1.4 -2  0.7999999999999998 -1.4 -2  1 -1.4 -2  1.2 -1.4 -2  1.4 -1.4 -2  1.6 -1.4 -2  1.8 -1.4 -2  2 -1.4 -2  -2 -1.2 -2  -1.8 -1.2 -2  -1.6 -1.2 -2  -1.4 -1.2 -2  -1.2 -1.2 -2  -1 -1.2 -2  -0.8 -1.2 -2  -0.6000000000000001 -1.2 -2  -0.3999999999999999 -1.2 -2  -0.2 -1.2 -2  0 -1.2 -2  0.2000000000000002 -1.2 -2  0.3999999999999999 -1.2 -2  0.6000000000000001 -1.2 -2  0.7999999999999998 -1.2 -2  1 -1.2 -2  1.2 -1.2 -2  1.4 -1.2 -2  1.6 -1.2 -2  1.8 -1.2 -2  2 -1.2 -2  -2 -1 -2  -1.8 -1 -2  -1.6 -1 -2  -1.4 -1 -2  -1.2 -1 -2  -1 -1 -2  -0.8 -1 -2  -0.6000000000000001 -1 -2  -0.3999999999999999 -1 -2  -0.2 -1 -2  0 -1 -2  0.2000000000000002 -1 -2  0.3999999999999999 -1 -2  0.6000000000000001 -1 -2  0.7999999999999998 -1 -2  1 -1 -2  1.2 -1 -2  1.4 -1 -2  1.6 -1 -2  1.8 -1 -2  2 -1 -2  -2 -0.8 -2  -1.8 -0.8 -2  -1.6 -0.8 -2  -1.4 -0.8 -2  -1.2 -0.8 -2  -1 -0.8 -2  -0.8 -0.8 -2  -0.6000000000000001 -0.8 -2  -0.3999999999999999 -0.8 -2  -0.2 -0.8 -2  0 -0.8 -2  0.2000000000000002 -0.8 -2  0.3999999999999999 -0.8 -2  0.6000000000000001 -0.8 -2  0.7999999999999998 -0.8 -2  1 -0.8 -2  1.2 -0.8 -2  1.4 -0.8 -2  1.6 -0.8 -2  1.8 -0.8 -2  2 -0.8 -2  -2 -0.6000000000000001 -2  -1.8 -0.6000000000000001 -2  -1.6 -0.6000000000000001 -2  -1.4 -0.6000000000000001 -2  -1.2 -0.6000000000000001 -2  -1 -0.6000000000000001 -2  -0.8 -0.6000000000000001 -2  -0.6000000000000001 -0.6000000000000001 -2  -0.3999999999999999 -0.6000000000000001 -2  -0.2 -0.6000000000000001 -2  0 -0.6000000000000001 -2  0.2000000000000002 -0.6000000000000001 -2  0.3999999999999999 -0.6000000000000001 -2  0.6000000000000001 -0.6000000000000001 -2  0.7999999999999998 -0.6000000000000001 -2  1 -0.6000000000000001 -2  1.2 -0.6000000000000001 -2  1.4 -0.6000000000000001 -2  1.6 -0.6000000000000001 -2  1.8 -0.6000000000000001 -2  2 -0.6000000000000001 -2  -2 -0.3999999999999999 -2  -1.8 -0.3999999999999999 -2  -1.6 -0.3999999999999999 -2  -1.4 -0.3999999999999999 -2  -1.2 -0.3999999999999999 -2  -1 -0.3999999999999999 -2  -0.8 -0.3999999999999999 -2  -0.6000000000000001 -0.3999999999999999 -2  -0.3999999999999999 -0.3999999999999999 -2  -0.2 -0.3999999999999999 -2  0 -0.3999999999999999 -2  0.2000000000000002 -0.3999999999999999 -2  0.3999999999999999 -0.3999999999999999 -2  0.6000000000000001 -0.3999999999999999 -2  0.7999999999999998 -0.3999999999999999 -2  1 -0.3999999999999999 -2  1.2 -0.3999999999999999 -2  1.4 -0.3999999999999999 -2  1.6 -0.3999999999999999 -2  1.8 -0.3999999999999999 -2  2 -0.3999999999999999 -2  -2 -0.2 -2  -1.8 -0.2 -2  -1.6 -0.2 -2  -1.4 -0.2 -2  -1.2 -0.2 -2  -1 -0.2 -2  -0.8 -0.2 -2  -0.6000000000000001 -0.2 -2  -0.3999999999999999 -0.2 -2  -0.2 -0.2 -2  0 -0.2 -2  0.2000000000000002 -0.2 -2  0.3999999999999999 -0.2 -2  0.6000000000000001 -0.2 -2  0.7999999999999998 -0.2 -2  1 -0.2 -2  1.2 -0.2 -2  1.4 -0.2 -2  1.6 -0.2 -2  1.8 -0.2 -2  2 -0.2 -2  -2 0 -2  -1.8 0 -2  -1.6 0 -2  -1.4 0 -2  -1.2 0 -2  -1 0 -2  -0.8 0 -2  -0.6000000000000001 0 -2  -0.3999999999999999 0 -2  -0.2 0 -2  0 0 -2  0.2000000000000002 0 -2  0.3999999999999999 0 -2  0.6000000000000001 0 -2  0.7999999999999998 0 -2  1 0 -2  1.2 0 -2  1.4 0 -2  1.6 0 -2  1.8 0 -2  2 0 -2  -2 0.2000000000000002 -2  -1.8 0.2000000000000002 -2  -1.6 0.2000000000000002 -2  -1.4 0.2000000000000002 -2  -1.2 0.2000000000000002 -2  -1 0.2000000000000002 -2  -0.8 0.2000000000000002 -2  -0.6000000000000001 0.2000000000000002 -2  -0.3999999999999999 0.2000000000000002 -2  -0.2 0.2000000000000002 -2  0 0.2000000000000002 -2  0.2000000000000002 0.2000000000000002 -2  0.3999999999999999 0.2000000000000002 -2  0.6000000000000001 0.2000000000000002 -2  0.7999999999999998 0.2000000000000002 -2  1 0.2000000000000002 -2  1.2 0.2000000000000002 -2  1.4 0.2000000000000002 -2  1.6 0.2000000000000002 -2  1.8 0.2000000000000002 -2  2 0.2000000000000002 -2  -2 0.3999999999999999 -2  -1.8 0.3999999999999999 -2  -1.6 0.3999999999999999 -2  -1.4 0.3999999999999999 -2  -1.2 0.3999999999999999 -2  -1 0.3999999999999999 -2  -0.8 0.3999999999999999 -2  -0.6000000000000001 0.3999999999999999 -2  -0.3999999999999999 0.3999999999999999 -2  -0.2 0.3999999999999999 -2  0 0.3999999999999999 -2  0.2000000000000002 0.3999999999999999 -2  0.3999999999999999 0.3999999999999999 -2  0.6000000000000001 0.3999999999999999 -2  0.7999999999999998 0.3999999999999999 -2  1 0.3999999999999999 -2  1.2 0.3999999999999999 -2  1.4 0.3999999999999999 -2  1.6 0.3999999999999999 -2  1.8 0.3999999999999999 -2  2 0.3999999999999999 -2  -2 0.6000000000000001 -2  -1.8 0.6000000000000001 -2  -1.6 0.6000000000000001 -2  -1.4 0.6000000000000001 -2  -1.2 0.6000000000000001 -2  -1 0.6000000000000001 -2  -0.8 0.6000000000000001 -2  -0.6000000000000001 0.6000000000000001 -2  -0.3999999999999999 0.6000000000000001 -2  -0.2 0.6000000000000001 -2  0 0.6000000000000001 -2  0.2000000000000002 0.6000000000000001 -2  0.3999999999999999 0.6000000000000001 -2  0.6000000000000001 0.6000000000000001 -2  0.7999999999999998 0.6000000000000001 -2  1 0.6000000000000001 -2  1.2 0.6000000000000001 -2  1.4 0.6000000000000001 -2  1.6 0.6000000000000001 -2  1.8 0.6000000000000001 -2  2 0.6000000000000001 -2  -2 0.7999999999999998 -2  -1.8 0.7999999999999998 -2  -1.6 0.7999999999999998 -2  -1.4 0.7999999999999998 -2  -1.2 0.7999999999999998 -2  -1 0.7999999999999998 -2  -0.8 0.7999999999999998 -2  -0.6000000000000001 0.7999999999999998 -2  -0.3999999999999999 0.7999999999999998 -2  -0.2 0.7999999999999998 -2  0 0.7999999999999998 -2  0.2000000000000002 0.7999999999999998 -2  0.3999999999999999 0.7999999999999998 -2  0.6000000000000001 0.7999999999999998 -2  0.7999999999999998 0.7999999999999998 -2  1 0.7999999999999998 -2  1.2 0.7999999999999998 -2  1.4 0.7999999999999998 -2  1.6 0.7999999999999998 -2  1.8 0.7999999999999998 -2  2 0.7999999999999998 -2  -2 1 -2  -1.8 1 -2  -1.6 1 -2  -1.4 1 -2  -1.2 1 -2  -1 1 -2  -0.8 1 -2  -0.6000000000000001 1 -2  -0.3999999999999999 1 -2  -0.2 1 -2  0 1 -2  0.2000000000000002 1 -2  0.3999999999999999 1 -2  0.6000000000000001 1 -2  0.7999999999999998 1 -2  1 1 -2  1.2 1 -2  1.4 1 -2  1.6 1 -2  1.8 1 -2  2 1 -2  -2 1.2 -2  -1.8 1.2 -2  -1.6 1.2 -2  -1.4 1.2 -2  -1.2 1.2 -2  -1 1.2 -2  -0.8 1.2 -2  -0.6000000000000001 1.2 -2  -0.3999999999999999 1.2 -2  -0.2 1.2 -2  0 1.2 -2  0.2000000000000002 1.2 -2  0.3999999999999999 1.2 -2  0.6000000000000001 1.2 -2  0.7999999999999998 1.2 -2  1 1.2 -2  1.2 1.2 -2  1.4 1.2 -2  1.6 1.2 -2  1.8 1.2 -2  2 1.2 -2  -2 1.4 -2  -1.8 1.4 -2  -1.6 1.4 -2  -1.4 1.4 -2  -1.2 1.4 -2  -1 1.4 -2  -0.8 1.4 -2  -0.6000000000000001 1.4 -2  -0.3999999999999999 1.4 -2  -0.2 1.4 -2  0 1.4 -2  0.2000000000000002 1.4 -2  0.3999999999999999 1.4 -2  0.6000000000000001 1.4 -2  0.7999999999999998 1.4 -2  1 1.4 -2  1.2 1.4 -2  1.4 1.4 -2  1.6 1.4 -2  1.8 1.4 -2  2 1.4 -2  -2 1.6 -2  -1.8 1.6 -2  -1.6 1.6 -2  -1.4 1.6 -2  -1.2 1.6 -2  -1 1.6 -2  -0.8 1.6 -2  -0.6000000000000001 1.6 -2  -0.3999999999999999 1.6 -2  -0.2 1.6 -2  0 1.6 -2  0.2000000000000002 1.6 -2  0.3999999999999999 1.6 -2  0.6000000000000001 1.6 -2  0.7999999999999998 1.6 -2  1 1.6 -2  1.2 1.6 -2  1.4 1.6 -2  1.6 1.6 -2  1.8 1.6 -2  2 1.6 -2  -2 1.8 -2  -1.8 1.8 -2  -1.6 1.8 -2  -1.4 1.8 -2  -1.2 1.8 -2  -1 1.8 -2  -0.8 1.8 -2  -0.6000000000000001 1.8 -2  -0.3999999999999999 1.8 -2  -0.2 1.8 -2  0 1.8 -2  0.2000000000000002 1.8 -2  0.3999999999999999 1.8 -2  0.6000000000000001 1.8 -2  0.7999999999999998 1.8 -2  1 1.8 -2  1.2 1.8 -2  1.4 1.8 -2  1.6 1.8 -2  1.8 1.8 -2  2 1.8 -2  -2 2 -2  -1.8 2 -2  -1.6 2 -2  -1.4 2 -2  -1.2 2 -2  -1 2 -2  -0.8 2 -2  -0.6000000000000001 2 -2  -0.3999999999999999 2 -2  -0.2 2 -2  0 2 -2  0.2000000000000002 2 -2  0.3999999999999999 2 -2  0.6000000000000001 2 -2  0.7999999999999998 2 -2  1 2 -2  1.2 2 -2  1.4 2 -2  1.6 2 -2  1.8 2 -2  2 2 -2  -2 -2 -1.8  -1.8 -2 -1.8  -1.6 -2 -1.8  -1.4 -2 -1.8  -1.2 -2 -1.8  -1 -2 -1.8  -0.8 -2 -1.8  -0.6000000000000001 -2 -1.8  -0.3999999999999999 -2 -1.8  -0.2 -2 -1.8  0 -2 -1.8  0.2000000000000002 -2 -1.8  0.3999999999999999 -2 -1.8  0.6000000000000001 -2 -1.8  0.7999999999999998 -2 -1.8  1 -2 -1.8  1.2 -2 -1.8  1.4 -2 -1.8  1.6 -2 -1.8  1.8 -2 -1.8  2 -2 -1.8  -2 -1.8 -1.8  -1.8 -1.8 -1.8  -1.6 -1.8 -1.8  -1.4 -1.8 -1.8  -1.2 -1.8 -1.8  -1 -1.8 -1.8  -0.8 -1.8 -1.8  -0.6000000000000001 -1.8 -1.8  -0.3999999999999999 -1.8 -1.8  -0.2 -1.8 -1.8  0 -1.8 -1.8  0.2000000000000002 -1.8 -1.8  0.3999999999999999 -1.8 -1.8  0.6000000000000001 -1.8 -1.8  0.7999999999999998 -1.8 -1.8  1 -1.8 -1.8  1.2 -1.8 -1.
[...]
<PointData  Scalars="uA"> 
<DataArray  type="Float64"  Name="uA"  format="ascii">-1.6922782463999533e-10  -1.2048826679810176e-10  -8.5442905684097722e-11  -6.7708689220201325e-11  -6.0079772356753588e-11  -5.9398216264545531e-11  -6.6008944248759781e-11  -7.7073257387033632e-11  -8.0348186785031662e-11  -5.8181178533324236e-11  -5.8967297827377160e-12  4.9011844443737898e-11  5.2678546764188179e-11  -3.4701361642080446e-11  -1.9234858138590159e-10  -3.3439853747497360e-10  -3.6566229774054356e-10  -2.5882651443856244e-10  -8.5919859552831081e-11  3.5701733208144545e-11  6.6786327785785304e-11  -1.2048826679810189e-10  -7.6559797269658060e-11  -5.0653696709026679e-11  -4.0178013820377744e-11  -3.6695398639760769e-11  -3.7466568051916838e-11  -4.3049959212348525e-11  -5.1303630985808213e-11  -5.2664246120440810e-11  -3.4000965639903704e-11  6.3306652373004158e-12  4.4169579465248179e-11  3.6973211805116967e-11  -4.1218031506310799e-11  -1.6395278435335570e-10  -2.5603092031950209e-10  -2.4693288579995755e-10  -1.3379193572028757e-10  5.8426454766382334e-12  7.7882956822327861e-11  8.2282735367480216e-11  -8.5442905684097761e-11  -5.0653696709026633e-11  -3.2712153444572878e-11  -2.6456196324298379e-11  -2.4782065996128479e-11  -2.5927212603220907e-11  -3.0743025522128025e-11  -3.7526886472036004e-11  -3.8236691948249628e-11  -2.2077148665328836e-11  1.1593609366352134e-11  4.1571430086269209e-11  3.2228251481883998e-11  -3.5933989531761343e-11  -1.3682405362410972e-10  -2.0513883295843512e-10  -1.8501185508862530e-10  -8.2795920162374829e-11  2.8370129729948690e-11  7.0684933056688878e-11  5.8214297469858871e-11  -6.7708689220201183e-11  -4.0178013820377453e-11  -2.6456196324298172e-11  -2.1905935437833297e-11  -2.0723457148864844e-11  -2.1813247972659940e-11  -2.6153934568715471e-11  -3.2177442131819692e-11  -3.2516282736856678e-11  -1.7491235399489114e-11  1.3063380015102920e-11  3.9455285483329210e-11  2.9511353251514976e-11  -3.3257782219132722e-11  -1.2350849264554711e-10  -1.8151496695834583e-10  -1.5873691465946090e-10  -6.5089432581761721e-11  2.9967470434507256e-11  5.7651871518020608e-11  4.1106898267538031e-11  -6.0079772356753135e-11  -3.6695398639760284e-11  -2.4782065996128088e-11  -2.0723457148864686e-11  -1.9535180285471859e-11  -2.0462733780715597e-11  -2.4512165827006892e-11  -3.0139459881894219e-11  -3.0266348133058827e-11  -1.5734034692438515e-11  1.3373867784797204e-11  3.8036987367779672e-11  2.7675886018642501e-11  -3.2818760219481019e-11  -1.1851956096997484e-10  -1.7236981129337733e-10  -1.4916934090042698e-10  -6.0204391143360925e-11  2.7141530044008206e-11  4.8718647582734449e-11  3.3111626097091188e-11  -5.9398216264544923e-11  -3.7466568051916295e-11  -2.5927212603220535e-11  -2.1813247972659914e-11  -2.0462733780715771e-11  -2.1219032194066390e-11  -2.5079328299255055e-11  -3.0524921344663187e-11  -3.0633775002367148e-11  -1.6490586736693728e-11  1.1729634909736023e-11  3.5355940917030783e-11  2.4584496092471042e-11  -3.5026063452334835e-11  -1.1871921272340462e-10  -1.7064494782344430e-10  -1.4710059538893198e-10  -5.9961625397824470e-11  2.4355508115182062e-11  4.3891031454056483e-11  3.0040061624202042e-11  -6.6008944248759122e-11  -4.3049959212348099e-11  -3.0743025522127941e-11  -2.6153934568715798e-11  -2.4512165827007312e-11  -2.5079328299255194e-11  -2.8833528969682296e-11  -3.4307427700554199e-11  -3.4671685723225230e-11  -2.1067730560835189e-11  6.4210676729612095e-12  2.9439475690046188e-11  1.8640966934635373e-11  -4.0104319257426724e-11  -1.2219589677551115e-10  -1.7244688118281111e-10  -1.4793738009237580e-10  -6.0884491712033325e-11  2.2683980115143544e-11  4.1790766073360220e-11  2.9162472939631627e-11  -7.7073257387033167e-11  -5.1303630985808129e-11  -3.7526886472036327e-11  -3.2177442131820364e-11  -3.0139459881894749e-11  -3.0524921344663329e-11  -3.4307427700554102e-11  -4.0067767524247834e-11  -4.0961946506664280e-11  -2.7969565159374752e-11  -8.6482725565951198e-13  2.2354813966716523e-11  1.2582073931853477e-11  -4.4357973413107403e-11  -1.2425610570993134e-10  -1.7253431955503984e-10  -1.4680590994192294e-10  -5.9460884753837933e-11  2.3743406305545796e-11  4.2411687947087438e-11  3.0036953367124469e-11  -8.0348186785031623e-11  -5.2664246120441107e-11  -3.8236691948250171e-11  -3.2516282736857337e-11  -3.0266348133059240e-11  -3.0633775002367181e-11  -3.4671685723225114e-11  -4.0961946506664286e-11  -4.2459366138051698e-11  -2.9730727018531809e-11  -2.0885638437887556e-12  2.2718442046198999e-11  1.5420518994910244e-11  -3.8732262021323694e-11  -1.1630551952257913e-10  -1.6337199690827204e-10  -1.3779948207934283e-10  -5.1755147091922404e-11  2.9563718542608962e-11  4.6419707944651386e-11  3.2960335532700794e-11  -5.8181178533324811e-11  -3.4000965639904253e-11  -2.2077148665329402e-11  -1.7491235399489654e-11  -1.5734034692438755e-11  -1.6490586736693634e-11  -2.1067730560835034e-11  -2.7969565159374694e-11  -2.9730727018531796e-11  -1.6335554715700497e-11  1.3272864227183453e-11  4.1140315019373352e-11  3.7137556416146015e-11  -1.4690125127509372e-11  -9.1918673610536744e-11  -1.4097319794750190e-10  -1.1928037674513061e-10  -3.8014824465628199e-11  3.8715533549706873e-11  5.1966540495123052e-11  3.6244981988253967e-11  -5.8967297827386926e-12  6.3306652372997704e-12  1.1593609366351590e-11  1.3063380015102482e-11  1.3373867784797115e-11  1.1729634909736267e-11  6.4210676729614785e-12  -8.6482725565933548e-13  -2.0885638437886050e-12  1.3272864227183609e-11  4.6157916571107510e-11  7.7573364027847229e-11  7.5701417851019652e-11  2.3014401801937698e-11  -5.8701328931959974e-11  -1.1519764601481933e-10  -1.0220283032320297e-10  -2.8934042602790227e-11  4.1906210809737813e-11  5.1770141322525621e-11  3.4399219730811758e-11  4.9011844443737142e-11  4.4169579465247681e-11  4.1571430086268802e-11  3.9455285483328997e-11  3.8036987367779930e-11  3.5355940917031307e-11  2.9439475690046647e-11  2.2354813966716788e-11  2.2718442046199232e-11  4.1140315019373572e-11  7.7573364027847346e-11  1.1100529403929574e-10  1.0741481211943854e-10  4.8122969157649011e-11  -4.4343462148342442e-11  -1.1323532972887427e-10  -1.1108258332643573e-10  -4.4611063196501648e-11  2.4257273493805854e-11  3.5857033605580974e-11  2.1073970347780455e-11  5.2678546764187804e-11  3.6973211805116670e-11  3.2228251481883876e-11  2.9511353251515234e-11  2.7675886018643279e-11  2.4584496092471950e-11  1.8640966934635906e-11  1.2582073931853713e-11  1.5420518994910402e-11  3.7137556416146125e-11  7.5701417851019691e-11  1.0741481211943848e-10  9.6395885173904701e-11  2.4409633003283931e-11  -8.2905084565228365e-11  -1.6416528250363092e-10  -1.6781967124984276e-10  -9.8933947881886537e-11  -2.0890500674677452e-11  2.7854070549486790e-12  -1.9418825597613880e-12  -3.4701361642080634e-11  -4.1218031506310831e-11  -3.5933989531761065e-11  -3.3257782219131902e-11  -3.2818760219479869e-11  -3.5026063452333924e-11  -4.0104319257426324e-11  -4.4357973413107248e-11  -3.8732262021323610e-11  -1.4690125127509269e-11  2.3014401801937736e-11  4.8122969157648979e-11  2.4409633003283847e-11  -6.3254655770748367e-11  -1.8340539626375620e-10  -2.6865792336730449e-10  -2.6424941317552264e-10  -1.7655288507490535e-10  -7.4342799621549928e-11  -2.8159378723448108e-11  -1.6886798921175125e-11  -1.9234858138590164e-10  -1.6395278435335555e-10  -1.3682405362410912e-10  -1.2350849264554600e-10  -1.1851956096997375e-10  -1.1871921272340397e-10  -1.2219589677551097e-10  -1.2425610570993137e-10  -1.1630551952257916e-10  -9.1918673610536679e-11  -5.8701328931959961e-11  -4.4343462148342642e-11  -8.2905084565228520e-11  -1.8340539626375625e-10  -3.0666639269755342e-10  -3.7993974655040172e-10  -3.4869028552136666e-10  -2.2569205923668360e-10  -8.9766171449846677e-11  -2.0282011005148021e-11  3.3922510259102214e-12  -3.3439853747497355e-10  -2.5603092031950172e-10  -2.0513883295843445e-10  -1.8151496695834490e-10  -1.7236981129337661e-10  -1.7064494782344404e-10  -1.7244688118281122e-10  -1.7253431955504002e-10  -1.6337199690827217e-10  -1.4097319794750193e-10  -1.1519764601481940e-10  -1.1323532972887442e-10  -1.6416528250363121e-10  -2.6865792336730464e-10  -3.7993974655040182e-10  -4.2328461365681977e-10  -3.5024862125623207e-10  -1.8603231513115243e-10  -2.2877652891260464e-11  5.2649951789435842e-11  6.9958157791276320e-11  -3.6566229774054351e-10  -2.4693288579995719e-10  -1.8501185508862468e-10  -1.5873691465946026e-10  -1.4916934090042662e-10  -1.4710059538893218e-10  -1.4793738009237622e-10  -1.4680590994192325e-10  -1.3779948207934301e-10  -1.1928037674513072e-10  -1.0220283032320308e-10  -1.1108258332643596e-10  -1.6781967124984310e-10  -2.6424941317552290e-10  -3.4869028552136676e-10  -3.5024862125623207e-10  -2.3346071726960862e-10  -4.0657070864444272e-11  1.2288851782707351e-10  1.7008290714591396e-10  1.5149528022982697e-10  -2.5882651443856228e-10  -1.3379193572028732e-10  -8.2795920162374415e-11  -6.5089432581761398e-11  -6.0204391143360977e-11  -5.9961625397825013e-11  -6.0884491712033803e-11  -5.9460884753838205e-11  -5.1755147091922579e-11  -3.8014824465628290e-11  -2.8934042602790311e-11  -4.4611063196501829e-11  -9.8933947881886705e-11  -1.7655288507490535e-10  -2.2569205923668344e-10  -1.8603231513115241e-10  -4.0657070864444292e-11  1.5020400086227134e-10  2.7445618348793050e-10  2.5659973371794541e-10  1.8001347139567479e-10  -8.5919859552831016e-11  5.8426454766383190e-12  2.8370129729948890e-11  2.9967470434507282e-11  2.7141530044007857e-11  2.4355508115181513e-11  2.2683980115143240e-11  2.3743406305545689e-11  2.9563718542608898e-11  3.8715533549706815e-11  4.1906210809737736e-11  2.4257273493805744e-11  -2.0890500674677497e-11  -7.4342799621549760e-11  -8.9766171449846547e-11  -2.2877652891260380e-11  1.2288851782707351e-10  2.7445618348793055e-10  3.2560456862527554e-10  2.2892623912744859e-10  1.0501093521952073e-10  3.5701733208144584e-11  7.7882956822327926e-11  7.0684933056688955e-11  5.7651871518020511e-11  4.8718647582734093e-11  4.3891031454056108e-11  4.1790766073360084e-11  4.2411687947087419e-11  4.6419707944651367e-11  5.1966540495123013e-11  5.1770141322525563e-11  3.5857033605580929e-11  2.7854070549487589e-12  -2.8159378723447901e-11  -2.0282011005147898e-11  5.2649951789435758e-11  1.7008290714591388e-10  2.5659973371794546e-10  2.2892623912744859e-10  8.4419906263111563e-11  -3.4505298677667173e-11  6.6786327785785356e-11  8.2282735367480268e-11  5.8214297469858871e-11  4.1106898267537888e-11  3.3111626097090910e-11  3.0040061624201822e-11  2.9162472939631602e-11  3.0036953367124494e-11  3.2960335532700794e-11  3.6244981988253934e-11  3.4399219730811732e-11  2.1073970347780446e-11  -1.9418825597612640e-12  -1.6886798921174935e-11  3.3922510259103078e-12  6.9958157791276243e-11  1.5149528022982692e-10  1.8001347139567479e-10  1.0501093521952072e-10  -3.4505298677667173e-11  -1.1743705209333623e-10  -5.4316091481034316e-10  -3.0912987987991915e-10  -2.1145925474394151e-10  -1.7954257482681022e-10  -1.7328782069244172e-10  -1.7737602270564294e-10  -1.8542862063946431e-10  -1.8714669047671022e-10  -1.6640121456893033e-10  -1.1656769037257452e-10  -6.4651710311401637e-11  -7.4973395849494872e-11  -2.0647445796202255e-10  -4.4149035774506661e-10  -6.5274075612545213e-10  -6.6588839163869373e-10  -3.9397723225405681e-10  6.1448455208921471e-11  4.4505725297282298e-10  5.3306046504298198e-10  3.9131981200970802e-10  -3.0912987987991879e-10  -1.2959255230398858e-10  -7.6942186437354950e-11  -6.8294451152983185e-11  -7.1307196632514532e-11  -7.7343951362819603e-11  -8.4084953735172891e-11  -8.5348260768051324e-11  -7.0191678295888933e-11  -3.4796939092364146e-11  -3.1156379932437086e-13  -1.4247381570265762e-11  -1.1631418875531406e-10  -2.8461345071744097e-10  -4.1594616597687618e-10  -3.8308347240472637e-10  -1.4300978508353635e-10  1.9498708269370137e-10  4.2205258872805374e-10  3.9782262791975725e-10  2.3135693577965698e-10  -2.1145925474394050e-10  -7.6942186437354601e-11  -4.5483462988721176e-11  -4.4723534251874105e-11  -4.9628739226645281e-11  -5.5191211191424851e-11  -6.0662468215230861e-11  -6.1335591925248341e-11  -4.8421317805108348e-11  -1.9374545238433855e-11  7.4081252320214640e-12  -7.5241874855011417e-12  -9.4778159084396319e-11  -2.3130164631396749e-10  -3.2735339944936754e-10  -2.8001058132052901e-10  -6.6298908930155832e-11  2.0596463532752521e-10  3.5642832692124517e-10  2.8508516602859021e-10  1.2621231639055176e-10  -1.7954257482680911e-10  -6.8294451152982707e-11  -4.4723534251874021e-11  -4.5375965739102278e-11  -4.9628075871153496e-11  -5.4174924530507896e-11  -5.8717432083795499e-11  -5.8942122604074766e-11  -4.6881543464123160e-11  -2.0556026579519000e-11  2.8502868758959967e-12  -1.2416010150524087e-11  -9.2784023298055151e-11  -2.1494817259057790e-10  -2.9604405872932897e-10  -2.4493245269934331e-10  -4.7387056359808145e-11  1.9137711869725411e-10  3.0636772044495847e-10  2.1788784771561423e-10  7.7561742478705795e-11  -1.7328782069244084e-10  -7.1307196632514248e-11  -4.9628739226645358e-11  -4.9628075871153703e-11  -5.2818010640695729e-11  -5.6542355576864710e-11  -6.0527207775144987e-11  -6.0500803830261721e-11  -4.8800504479160069e-11  -2.3701214569648177e-11  -1.8725257166168838e-12  -1.7415660972582946e-11  -9.4867411450017236e-11  -2.1084809355883020e-10  -2.8573033766588446e-10  -2.3377818622453556e-10  -4.4482132804357951e-11  1.7871493788555531e-10  2.7845144265074929e-10  1.8517663588238670e-10  6.0627400973518363e-11  -1.7737602270564227e-10  -7.7343951362819499e-11  -5.5191211191425323e-11  -5.4174924530508607e-11  -5.6542355576865208e-11  -5.9763785315023351e-11  -6.3480578451424043e-11  -6.3399983596634809e-11  -5.1979360179155039e-11  -2.7586394658602132e-11  -6.6257506238423204e-12  -2.2414804970208433e-11  -9.8600430008919647e-11  -2.1174760821947734e-10  -2.8368511660340942e-10  -2.3110124471381313e-10  -4.5108898509038280e-11  1.7171858775389292e-10  2.6551971346212726e-10  1.7153145415557905e-10  5.6542369947459204e-11  -1.8542862063946400e-10  -8.4084953735173305e-11  -6.0662468215231882e-11  -5.8717432083796675e-11  -6.0527207775145595e-11  -6.3480578451424082e-11  -6.7143532076722266e-11  -6.7208174549146544e-11  -5.6145296598389964e-11  -3.2261114499899091e-11  -1.1707218246061440e-11  -2.7352104958239174e-11  -1.0243599054207231e-10  -2.1358213665662287e-10  -2.8339843708687223e-10  -2.2976903616424399e-10  -4.4596266758792948e-11  1.6990406200468296e-10  2.6141700844835148e-10  1.6733685063054460e-10  5.6704571525080977e-11  -1.8714669047671084e-10  -8.5348260768052345e-11  -6.1335591925249633e-11  -5.8942122604075748e-11  -6.0500803830261850e-11  -6.3399983596634563e-11  -6.7208174549146338e-11  -6.7591054843850199e-11  -5.6899417807429599e-11  -3.3199480479656649e-11  -1.2337740253836346e-11  -2.6945908142866110e-11  -1.0026724834125699e-10  -2.0929453549673204e-10  -2.7732968245445119e-10  -2.2298772814812647e-10  -3.8513556613152724e-11  1.7419793627150056e-10  2.6372240158113112e-10  1.6855300357712855e-10  5.8715243040862262e-11  -1.6640121456893170e-10  -7.0191678295890096e-11  -4.8421317805109318e-11  -4.6881543464123535e-11  -4.8800504479159649e-11  -5.1979360179154419e-11  -5.6145296598389622e-11  -5.6899417807429451e-11  -4.6316193579393194e-11  -2.2094433864216899e-11  1.4432834035552835e-13  -1.2371228958768312e-11  -8.3447067694619556e-11  -1.9089443528919804e-10  -2.5876174100384208e-10  -2.0600076343611071e-10  -2.4603622297821020e-11  1.8429049258383784e-10  2.7019796572538900e-10  1.7237996855900332e-10  6.1271024840609523e-11  -1.1656769037257607e-10  -3.4796939092365129e-11  -1.9374545238434472e-11  -2.0556026579519032e-11  -2.3701214569647521e-11  -2.7586394658601292e-11  -3.2261114499898548e-11  -3.3199480479656346e-11  -2.2094433864216753e-11  3.6564740465386752e-12  2.8269052195205938e-11  1.8167630608393059e-11  -5.1682969371910476e-11  -1.6020505953721155e-10  -2.3187331410070796e-10  -1.8512052523514715e-10  -1.0668035506587176e-11  1.9182829790533881e-10  2.7298741377937100e-10  1.7245997531123703e-10  6.0462468970039597e-11  -6.4651710311402710e-11  -3.1156379932500175e-13  7.4081252320211409e-12  2.8502868758962116e-12  -1.8725257166160138e-12  -6.6257506238413640e-12  -1.1707218246060747e-11  -1.2337740253835900e-11  1.4432834035579129e-13  2.8269052195206073e-11  5.5356472382530084e-11  4.6212085224103374e-11  -2.5848740713446593e-11  -1.4049480671942105e-10  -2.2145538449429925e-10  -1.8508384455224968e-10  -1.9539273964828851e-11  1.7747917003061371e-10  2.5719039958388410e-10  1.5846009866855915e-10  5.0084344478233376e-11  -7.4973395849495104e-11  -1.4247381570265941e-11  -7.5241874855010109e-12  -1.2416010150523293e-11  -1.7415660972581563e-11  -2.2414804970207295e-11  -2.7352104958238515e-11  -2.6945908142865777e-11  -1.2371228958768184e-11  1.8167630608393013e-11  4.6212085224103264e-11  3.4401575001156622e-11  -4.5224091314772722e-11  -1.7159164398590620e-10  -2.6551562808980484e-10  -2.3932099212559550e-10  -7.7777199446384005e-11  1.2265364911827909e-10  2.1179325787465162e-10  1.2529754316043016e-10  2.8778364189724412e-11  -2.0647445796202216e-10  -1.1631418875531383e-10  -9.4778159084395672e-11  -9.2784023298053819e-11  -9.4867411450015659e-11  -9.8600430008918691e-11  -1.0243599054207200e-10  -1.0026724834125700e-10  -8.3447067694619672e-11  -5.1682969371910812e-11  -2.5848740713446913e-11  -4.5224091314772896e-11  -1.3744866966997489e-10  -2.7804954106994737e-10  -3.8227478948768708e-10  -3.5709899482653465e-10  -1.8475016758050145e-10  3.6650773111491575e-11  1.5164359587016771e-10  8.9361535269633017e-11  1.0912120385926668e-11  -4.4149035774506615e-10  -2.8461345071744014e-10  -2.3130164631396622e-10  -2.1494817259057635e-10  -2.1084809355882911e-10  -2.1174760821947724e-10  -2.1358213665662315e-10  -2.0929453549673242e-10  -1.9089443528919843e-10  -1.6020505953721186e-10  -1.4049480671942128e-10  -1.7159164398590636e-10  -2.7804954106994748e-10  -4.2882447310783790e-10  -5.3168776648653044e-10  -4.8901900096150391e-10  -2.8417244354354447e-10  -2.2350490955381181e-11  1.3060358803080149e-10  9.4700017927965200e-11  2.7873040274983593e-11  -6.5274075612545110e-10  -4.1594616597687494e-10  -3.2735339944936599e-10  -2.9604405872932768e-10  -2.8573033766588410e-10  -2.8368511660340988e-10  -2.8339843708687291e-10  -2.7732968245445191e-10  -2.5876174100384265e-10  -2.3187331410070837e-10  -2.2145538449429953e-10  -2.6551562808980510e-10  -3.8227478948768739e-10  -5.3168776648653054e-10  -6.1438273072695989e-10  -5.3215260059199039e-10  -2.7623033498725587e-10  3.4108285809084613e-11  2.1838304339684019e-10  1.8829841860932961e-10  1.0554235361781329e-10  -6.6588839163869269e-10  -3.8308347240472518e-10  -2.8001058132052788e-10  -2.4493245269934284e-10  -2.3377818622453623e-10  -2.3110124471381427e-10  -2.2976903616424523e-10  -2.2298772814812732e-10  -2.0600076343611130e-10  -1.8512052523514746e-10  -1.8508384455224991e-10  -2.3932099212559581e-10  -3.5709899482653512e-10  -4.8901900096150422e-10  -5.3215260059199049e-10  -3.9503457075775505e-10  -8.5364582749339116e-11  2.5742454747499228e-10  4.3793873120955087e-10  3.6674439049194316e-10  2.2422229961472138e-10  -3.9397723225405635e-10  -1.4300978508353576e-10  -6.6298908930155354e-11  -4.7387056359808474e-11  -4.4482132804359140e-11  -4.5108898509040348e-11  -4.4596266758794331e-11  -3.8513556613153538e-11  -2.4603622297821499e-11  -1.0668035506587247e-11  -1.9539273964828838e-11  -7.7777199446384315e-11  -1.8475016758050179e-10  -2.8417244354354452e-10  -2.7623033498725581e-10  -8.5364582749339090e-11  2.5658758734693674e-10  5.8831601749120871e-10  7.0641821448791568e-10  5.3566072297846407e-10  2.9808202354399590e-10  6.1448455208921885e-11  1.9498708269370171e-10  2.0596463532752526e-10  1.9137711869725351e-10  1.7871493788555379e-10  1.7171858775389106e-10  1.6990406200468208e-10  1.7419793627150009e-10  1.8429049258383764e-10  1.