<?xml version="1.0"?>
<VTKFile type="UnstructuredGrid"  version="0.1"  >
<UnstructuredGrid>
<Piece  NumberOfPoints="9261" NumberOfCells="48000">
<Points>
<DataArray  type="Float64"  NumberOfComponents="3"  format="ascii">-2 -2 -2  -1.8 -2 -2  -1.6 -2 -2  -1.4 -2 -2  -1.2 -2 -2  -1 -2 -2  -0.8 -2 -2  -0.6000000000000001 -2 -2  -0.3999999999999999 -2 -2  -0.2 -2 -2  0 -2 -2  0.2000000000000002 -2 -2  0.3999999999999999 -2 -2  0.6000000000000001 -2 -2  0.7999999999999998 -2 -2  1 -2 -2  1.2 -2 -2  1.4 -2 -2  1.6 -2 -2  1.8 -2 -2  2 -2 -2  -2 -1.8 -2  -1.8 -1.8 -2  -1.6 -1.8 -2  -1.4 -1.8 -2  -1.2 -1.8 -2  -1 -1.8 -2  -0.8 -1.8 -2  -0.6000000000000001 -1.8 -2  -0.3999999999999999 -1.8 -2  -0.2 -1.8 -2  0 -1.8 -2  0.2000000000000002 -1.8 -2  0.3999999999999999 -1.8 -2  0.6000000000000001 -1.8 -2  0.7999999999999998 -1.8 -2  1 -1.8 -2  1.2 -1.8 -2  1.4 -1.8 -2  1.6 -1.8 -2  1.8 -1.8 -2  2 -1.8 -2  -2 -1.6 -2  -1.8 -1.6 -2  -1.6 -1.6 -2  -1.4 -1.6 -2  -1.2 -1.6 -2  -1 -1.6 -2  -0.8 -1.6 -2  -0.6000000000000001 -1.6 -2  -0.3999999999999999 -1.6 -2  -0.2 -1.6 -2  0 -1.6 -2  0.2000000000000002 -1.6 -2  0.3999999999999999 -1.6 -2  0.6000000000000001 -1.6 -2  0.7999999999999998 -1.6 -2  1 -1.6 -2  1.2 -1.6 -2  1.4 -1.6 -2  1.6 -1.6 -2  1.8 -1.6 -2  2 -1.6 -2  -2 -1.4 -2  -1.8 -1.4 -2  -1.6 -1.4 -2  -1.4 -1.4 -2  -1.2 -1.4 -2  -1 -1.4 -2  -0.8 -1.4 -2  -0.6000000000000001 -1.4 -2  -0.3999999999999999 -1.4 -2  -0.2 -1.4 -2  0 -1.4 -2  0.2000000000000002 -1.4 -2  0.3999999999999999 -1.4 -2  0.6000000000000001 -1.4 -2  0.7999999999999998 -1.4 -2  1 -1.4 -2  1.2 -1.4 -2  1.4 -1.4 -2  1.6 -1.4 -2  1.8 -1.4 -2  2 -1.4 -2  -2 -1.2 -2  -1.8 -1.2 -2  -1.6 -1.2 -2  -1.4 -1.2 -2  -1.2 -1.2 -2  -1 -1.2 -2  -0.8 -1.2 -2  -0.6000000000000001 -1.2 -2  -0.3999999999999999 -1.2 -2  -0.2 -1.2 -2  0 -1.2 -2  0.2000000000000002 -1.2 -2  0.3999999999999999 -1.2 -2  0.6000000000000001 -1.2 -2  0.7999999999999998 -1.2 -2  1 -1.2 -2  1.2 -1.2 -2  1.4 -1.2 -2  1.6 -1.2 -2  1.8 -1.2 -2  2 -1.2 -2  -2 -1 -2  -1.8 -1 -2  -1.6 -1 -2  -1.4 -1 -2  -1.2 -1 -2  -1 -1 -2  -0.8 -1 -2  -0.6000000000000001 -1 -2  -0.3999999999999999 -1 -2  -0.2 -1 -2  0 -1 -2  0.2000000000000002 -1 -2  0.3999999999999999 -1 -2  0.6000000000000001 -1 -2  0.7999999999999998 -1 -2  1 -1 -2  1.2 -1 -2  1.4 -1 -2  1.6 -1 -2  1.8 -1 -2  2 -1 -2  -2 -0.8 -2  -1.8 -0.8 -2  -1.6 -0.8 -2  -1.4 -0.8 -2  -1.2 -0.8 -2  -1 -0.8 -2  -0.8 -0.8 -2  -0.6000000000000001 -0.8 -2  -0.3999999999999999 -0.8 -2  -0.2 -0.8 -2  0 -0.8 -2  0.2000000000000002 -0.8 -2  0.3999999999999999 -0.8 -2  0.6000000000000001 -0.8 -2  0.7999999999999998 -0.8 -2  1 -0.8 -2  1.2 -0.8 -2  1.4 -0.8 -2  1.6 -0.8 -2  1.8 -0.8 -2  2 -0.8 -2  -2 -0.6000000000000001 -2  -1.8 -0.6000000000000001 -2  -1.6 -0.6000000000000001 -2  -1.4 -0.6000000000000001 -2  -1.2 -0.6000000000000001 -2  -1 -0.6000000000000001 -2  -0.8 -0.6000000000000001 -2  -0.6000000000000001 -0.6000000000000001 -2  -0.3999999999999999 -0.6000000000000001 -2  -0.2 -0.6000000000000001 -2  0 -0.6000000000000001 -2  0.2000000000000002 -0.6000000000000001 -2  0.3999999999999999 -0.6000000000000001 -2  0.6000000000000001 -0.6000000000000001 -2  0.7999999999999998 -0.6000000000000001 -2  1 -0.6000000000000001 -2  1.2 -0.6000000000000001 -2  1.4 -0.6000000000000001 -2  1.6 -0.6000000000000001 -2  1.8 -0.6000000000000001 -2  2 -0.6000000000000001 -2  -2 -0.3999999999999999 -2  -1.8 -0.3999999999999999 -2  -1.6 -0.3999999999999999 -2  -1.4 -0.3999999999999999 -2  -1.2 -0.3999999999999999 -2  -1 -0.3999999999999999 -2  -0.8 -0.3999999999999999 -2  -0.6000000000000001 -0.3999999999999999 -2  -0.3999999999999999 -0.3999999999999999 -2  -0.2 -0.3999999999999999 -2  0 -0.3999999999999999 -2  0.2000000000000002 -0.3999999999999999 -2  0.3999999999999999 -0.3999999999999999 -2  0.6000000000000001 -0.3999999999999999 -2  0.7999999999999998 -0.3999999999999999 -2  1 -0.3999999999999999 -2  1.2 -0.3999999999999999 -2  1.4 -0.3999999999999999 -2  1.6 -0.3999999999999999 -2  1.8 -0.3999999999999999 -2  2 -0.3999999999999999 -2  -2 -0.2 -2  -1.8 -0.2 -2  -1.6 -0.2 -2  -1.4 -0.2 -2  -1.2 -0.2 -2  -1 -0.2 -2  -0.8 -0.2 -2  -0.6000000000000001 -0.2 -2  -0.3999999999999999 -0.2 -2  -0.2 -0.2 -2  0 -0.2 -2  0.2000000000000002 -0.2 -2  0.3999999999999999 -0.2 -2  0.6000000000000001 -0.2 -2  0.7999999999999998 -0.2 -2  1 -0.2 -2  1.2 -0.2 -2  1.4 -0.2 -2  1.6 -0.2 -2  1.8 -0.2 -2  2 -0.2 -2  -2 0 -2  -1.8 0 -2  -1.6 0 -2  -1.4 0 -2  -1.2 0 -2  -1 0 -2  -0.8 0 -2  -0.6000000000000001 0 -2  -0.3999999999999999 0 -2  -0.2 0 -2  0 0 -2  0.2000000000000002 0 -2  0.3999999999999999 0 -2  0.6000000000000001 0 -2  0.7999999999999998 0 -2  1 0 -2  1.2 0 -2  1.4 0 -2  1.6 0 -2  1.8 0 -2  2 0 -2  -2 0.2000000000000002 -2  -1.8 0.2000000000000002 -2  -1.6 0.2000000000000002 -2  -1.4 0.2000000000000002 -2  -1.2 0.2000000000000002 -2  -1 0.2000000000000002 -2  -0.8 0.2000000000000002 -2  -0.6000000000000001 0.2000000000000002 -2  -0.3999999999999999 0.2000000000000002 -2  -0.2 0.2000000000000002 -2  0 0.2000000000000002 -2  0.2000000000000002 0.2000000000000002 -2  0.3999999999999999 0.2000000000000002 -2  0.6000000000000001 0.2000000000000002 -2  0.7999999999999998 0.2000000000000002 -2  1 0.2000000000000002 -2  1.2 0.2000000000000002 -2  1.4 0.2000000000000002 -2  1.6 0.2000000000000002 -2  1.8 0.2000000000000002 -2  2 0.2000000000000002 -2  -2 0.3999999999999999 -2  -1.8 0.3999999999999999 -2  -1.6 0.3999999999999999 -2  -1.4 0.3999999999999999 -2  -1.2 0.3999999999999999 -2  -1 0.3999999999999999 -2  -0.8 0.3999999999999999 -2  -0.6000000000000001 0.3999999999999999 -2  -0.3999999999999999 0.3999999999999999 -2  -0.2 0.3999999999999999 -2  0 0.3999999999999999 -2  0.2000000000000002 0.3999999999999999 -2  0.3999999999999999 0.3999999999999999 -2  0.6000000000000001 0.3999999999999999 -2  0.7999999999999998 0.3999999999999999 -2  1 0.3999999999999999 -2  1.2 0.3999999999999999 -2  1.4 0.3999999999999999 -2  1.6 0.3999999999999999 -2  1.8 0.3999999999999999 -2  2 0.3999999999999999 -2  -2 0.6000000000000001 -2  -1.8 0.6000000000000001 -2  -1.6 0.6000000000000001 -2  -1.4 0.6000000000000001 -2  -1.2 0.6000000000000001 -2  -1 0.6000000000000001 -2  -0.8 0.6000000000000001 -2  -0.6000000000000001 0.6000000000000001 -2  -0.3999999999999999 0.6000000000000001 -2  -0.2 0.6000000000000001 -2  0 0.6000000000000001 -2  0.2000000000000002 0.6000000000000001 -2  0.3999999999999999 0.6000000000000001 -2  0.6000000000000001 0.6000000000000001 -2  0.7999999999999998 0.6000000000000001 -2  1 0.6000000000000001 -2  1.2 0.6000000000000001 -2  1.4 0.6000000000000001 -2  1.6 0.6000000000000001 -2  1.8 0.6000000000000001 -2  2 0.6000000000000001 -2  -2 0.7999999999999998 -2  -1.8 0.7999999999999998 -2  -1.6 0.7999999999999998 -2  -1.4 0.7999999999999998 -2  -1.2 0.7999999999999998 -2  -1 0.7999999999999998 -2  -0.8 0.7999999999999998 -2  -0.6000000000000001 0.7999999999999998 -2  -0.3999999999999999 0.7999999999999998 -2  -0.2 0.7999999999999998 -2  0 0.7999999999999998 -2  0.2000000000000002 0.7999999999999998 -2  0.3999999999999999 0.7999999999999998 -2  0.6000000000000001 0.7999999999999998 -2  0.7999999999999998 0.7999999999999998 -2  1 0.7999999999999998 -2  1.2 0.7999999999999998 -2  1.4 0.7999999999999998 -2  1.6 0.7999999999999998 -2  1.8 0.7999999999999998 -2  2 0.7999999999999998 -2  -2 1 -2  -1.8 1 -2  -1.6 1 -2  -1.4 1 -2  -1.2 1 -2  -1 1 -2  -0.8 1 -2  -0.6000000000000001 1 -2  -0.3999999999999999 1 -2  -0.2 1 -2  0 1 -2  0.2000000000000002 1 -2  0.3999999999999999 1 -2  0.6000000000000001 1 -2  0.7999999999999998 1 -2  1 1 -2  1.2 1 -2  1.4 1 -2  1.6 1 -2  1.8 1 -2  2 1 -2  -2 1.2 -2  -1.8 1.2 -2  -1.6 1.2 -2  -1.4 1.2 -2  -1.2 1.2 -2  -1 1.2 -2  -0.8 1.2 -2  -0.6000000000000001 1.2 -2  -0.3999999999999999 1.2 -2  -0.2 1.2 -2  0 1.2 -2  0.2000000000000002 1.2 -2  0.3999999999999999 1.2 -2  0.6000000000000001 1.2 -2  0.7999999999999998 1.2 -2  1 1.2 -2  1.2 1.2 -2  1.4 1.2 -2  1.6 1.2 -2  1.8 1.2 -2  2 1.2 -2  -2 1.4 -2  -1.8 1.4 -2  -1.6 1.4 -2  -1.4 1.4 -2  -1.2 1.4 -2  -1 1.4 -2  -0.8 1.4 -2  -0.6000000000000001 1.4 -2  -0.3999999999999999 1.4 -2  -0.2 1.4 -2  0 1.4 -2  0.2000000000000002 1.4 -2  0.3999999999999999 1.4 -2  0.6000000000000001 1.4 -2  0.7999999999999998 1.4 -2  1 1.4 -2  1.2 1.4 -2  1.4 1.4 -2  1.6 1.4 -2  1.8 1.4 -2  2 1.4 -2  -2 1.6 -2  -1.8 1.6 -2  -1.6 1.6 -2  -1.4 1.6 -2  -1.2 1.6 -2  -1 1.6 -2  -0.8 1.6 -2  -0.6000000000000001 1.6 -2  -0.3999999999999999 1.6 -2  -0.2 1.6 -2  0 1.6 -2  0.2000000000000002 1.6 -2  0.3999999999999999 1.6 -2  0.6000000000000001 1.6 -2  0.7999999999999998 1.6 -2  1 1.6 -2  1.2 1.6 -2  1.4 1.6 -2  1.6 1.6 -2  1.8 1.6 -2  2 1.6 -2  -2 1.8 -2  -1.8 1.8 -2  -1.6 1.8 -2  -1.4 1.8 -2  -1.2 1.8 -2  -1 1.8 -2  -0.8 1.8 -2  -0.6000000000000001 1.8 -2  -0.3999999999999999 1.8 -2  -0.2 1.8 -2  0 1.8 -2  0.2000000000000002 1.8 -2  0.3999999999999999 1.8 -2  0.6000000000000001 1.8 -2  0.7999999999999998 1.8 -2  1 1.8 -2  1.2 1.8 -2  1.4 1.8 -2  1.6 1.8 -2  1.8 1.8 -2  2 1.8 -2  -2 2 -2  -1.8 2 -2  -1.6 2 -2  -1.4 2 -2  -1.2 2 -2  -1 2 -2  -0.8 2 -2  -0.6000000000000001 2 -2  -0.3999999999999999 2 -2  -0.2 2 -2  0 2 -2  0.2000000000000002 2 -2  0.3999999999999999 2 -2  0.6000000000000001 2 -2  0.7999999999999998 2 -2  1 2 -2  1.2 2 -2  1.4 2 -2  1.6 2 -2  1.8 2 -2  2 2 -2  -2 -2 -1.8  -1.8 -2 -1.8  -1.6 -2 -1.8  -1.4 -2 -1.8  -1.2 -2 -1.8  -1 -2 -1.8  -0.8 -2 -1.8  -0.6000000000000001 -2 -1.8  -0.3999999999999999 -2 -1.8  -0.2 -2 -1.8  0 -2 -1.8  0.2000000000000002 -2 -1.8  0.3999999999999999 -2 -1.8  0.6000000000000001 -2 -1.8  0.7999999999999998 -2 -1.8  1 -2 -1.8  1.2 -2 -1.8  1.4 -2 -1.8  1.6 -2 -1.8  1.8 -2 -1.8  2 -2 -1.8  -2 -1.8 -1.8  -1.8 -1.8 -1.8  -1.6 -1.8 -1.8  -1.4 -1.8 -1.8  -1.2 -1.8 -1.8  -1 -1.8 -1.8  -0.8 -1.8 -1.8  -0.6000000000000001 -1.8 -1.8  -0.3999999999999999 -1.8 -1.8  -0.2 -1.8 -1.8  0 -1.8 -1.8  0.2000000000000002 -1.8 -1.8  0.3999999999999999 -1.8 -1.8  0.6000000000000001 -1.8 -1.8  0.7999999999999998 -1.8 -1.8  1 -1.8 -1.8  1.2 -1.8 -1.
[...]
<PointData  Scalars="uA"> 
<DataArray  type="Float64"  Name="uA"  format="ascii">1.2574792214800911e-13  9.3842011858103182e-14  1.0084865956841584e-13  9.7128409504356807e-14  3.2890346344573850e-14  1.7354307092566072e-15  1.5074316283016682e-13  3.3259711560099668e-13  2.4438354985356878e-13  -2.0379739378840441e-14  -1.3419657522017248e-13  -7.9276490403628626e-14  -2.2537113264401778e-14  -6.3775249902513779e-15  -2.2687423106373328e-15  -5.4106463443552576e-16  -1.1011799830095034e-16  7.3040162246703766e-18  1.2651902672944988e-17  3.3203082230863691e-18  8.2026535733948543e-19  9.3842011858104091e-14  6.0931065824355786e-14  6.4183321951590363e-14  6.3447821713969447e-14  2.3391404471021067e-14  1.3701461762694061e-15  9.2905924867778658e-14  2.1025825116415092e-13  1.6097122643418004e-13  -1.0792232157095224e-15  -7.2573995389726677e-14  -4.2499609044318158e-14  -1.1517587416923936e-14  -3.2123205757424909e-15  -1.0375065900712631e-15  -1.6594994675435657e-16  -3.1386952866881393e-18  2.4491657381491567e-17  1.1263037694993107e-17  2.5063469316913541e-18  5.7345953719243762e-20  1.0084865956841654e-13  6.4183321951590111e-14  6.6114805614984850e-14  6.3423310054402593e-14  2.5929248514130836e-14  1.2406945999972395e-14  1.0592862400966501e-13  2.1046318638151705e-13  1.4748782070503773e-13  -1.5789214406404128e-14  -8.1345646935008877e-14  -4.6000374822790673e-14  -1.2275765259290134e-14  -3.3494483883204602e-15  -1.1963096393981204e-15  -2.3370925165885610e-16  -1.1372960229877923e-17  2.8619579421497895e-17  1.8503950052184627e-17  5.8146791667023683e-18  1.2592071860288072e-18  9.7128409504356088e-14  6.3447821713968185e-14  6.3423310054401684e-14  6.1097290179417964e-14  2.5640260683834513e-14  1.4178772907937584e-14  1.0651658013956029e-13  2.0483836064777060e-13  1.3379377669968966e-13  -3.4277412003945307e-14  -9.9356080048534703e-14  -5.9730674708198382e-14  -2.0856708960813484e-14  -7.9869662247103796e-15  -3.4242847744734314e-15  -1.1853120429515017e-15  -3.7111560840310227e-16  -8.2883946050397688e-17  -5.8489909476538142e-18  3.4089552297469719e-18  2.2784204645834712e-18  3.2890346344571073e-14  2.3391404471019161e-14  2.5929248514130218e-14  2.5640260683834964e-14  -8.3387521690416047e-15  -2.3610589964656962e-14  5.9075709851482093e-14  1.4884662244454007e-13  7.8991750734821232e-14  -7.6768044274239526e-14  -1.2509050602526548e-13  -7.1787839681432357e-14  -2.5201422897835756e-14  -9.2757759330001605e-15  -3.8970138418540407e-15  -1.5109043969447718e-15  -6.2336787621613519e-16  -2.3797172258000443e-16  -7.8078794142459815e-17  -2.1373946903728636e-17  -5.0051856112478707e-18  1.7354307092527812e-15  1.3701461762681818e-15  1.2406945999973147e-14  1.4178772907938985e-14  -2.3610589964656451e-14  -4.9764107770960370e-14  2.4320706761312213e-14  1.2185244306330656e-13  7.8148929676336584e-14  -4.7826528443543125e-14  -7.9679730027669131e-14  -2.7612371592367686e-14  7.3505133825880718e-15  1.0359648700840455e-14  6.2131935053017279e-15  3.0096533151279671e-15  1.1160993183324678e-15  3.1449904118109592e-16  5.2548105452844876e-17  -5.2451362531141543e-18  -7.6845300692436143e-18  1.5074316283016404e-13  9.2905924867779213e-14  1.0592862400966710e-13  1.0651658013956137e-13  5.9075709851481790e-14  2.4320706761311418e-14  1.0939174176321787e-13  2.4238671605472761e-13  2.3502848714359375e-13  1.1513807034348600e-13  5.2496078601210917e-14  5.7225259424386052e-14  5.1680644813743716e-14  3.0166539367259619e-14  1.4438139384117097e-14  6.5253777412103366e-15  2.7233808245085909e-15  1.0448059157799806e-15  3.4761050142898164e-16  9.1772560818761709e-17  2.2179989863115906e-17  3.3259711560099643e-13  2.1025825116415261e-13  2.1046318638151869e-13  2.0483836064777027e-13  1.4884662244453855e-13  1.2185244306330562e-13  2.4238671605472746e-13  4.1304678770587559e-13  3.9909970026782710e-13  2.1487292226786721e-13  6.8012721627233657e-14  1.6113627189212785e-14  -3.8156577967996629e-15  -1.3348805106933165e-14  -1.1233723003231911e-14  -5.8150098020825201e-15  -2.2466816828342149e-15  -6.2226630441792934e-16  -9.9267885237983331e-17  4.9956147487992581e-18  9.8567302535963463e-18  2.4438354985357014e-13  1.6097122643418141e-13  1.4748782070503745e-13  1.3379377669968770e-13  7.8991750734819768e-14  7.8148929676336912e-14  2.3502848714359526e-13  3.9909970026782801e-13  3.0648110294667659e-13  1.8674994717317590e-14  -1.7790646286789350e-13  -1.9907988016637131e-13  -1.4562747878478876e-13  -8.7531683460385914e-14  -4.3680883381059584e-14  -1.8410983944287986e-14  -6.8596238317742217e-15  -2.2753050504486911e-15  -6.7013627865451357e-16  -1.7541537497846182e-16  -4.9788238815001609e-17  -2.0379739378839532e-14  -1.0792232157096234e-15  -1.5789214406405510e-14  -3.4277412003946708e-14  -7.6768044274239109e-14  -4.7826528443541389e-14  1.1513807034348787e-13  2.1487292226786767e-13  1.8674994717316429e-14  -3.1097546142848936e-13  -4.3423900480061973e-13  -3.2134944726912059e-13  -1.6135153205880479e-13  -5.9026228276345144e-14  -1.3628094968184394e-14  -2.2292640600002212e-17  1.6759070551998709e-15  9.7824052955753206e-16  3.8133002409273528e-16  1.1857097764475348e-16  4.0631738073522279e-17  -1.3419657522017329e-13  -7.2573995389727372e-14  -8.1345646935009760e-14  -9.9356080048534249e-14  -1.2509050602526399e-13  -7.9679730027667415e-14  5.2496078601211851e-14  6.8012721627233152e-14  -1.7790646286789436e-13  -4.3423900480062135e-13  -3.9995481021979019e-13  -1.6968481228196815e-13  3.8763107284784498e-15  5.3435152944906831e-14  4.1707583291965290e-14  2.0956788626327116e-14  8.0284220589036585e-15  2.5395861663891180e-15  6.9499555202874758e-16  1.7243872505456719e-16  4.7930125785716560e-17  -7.9276490403629749e-14  -4.2499609044318518e-14  -4.6000374822790622e-14  -5.9730674708197625e-14  -7.1787839681431171e-14  -2.7612371592367024e-14  5.7225259424385888e-14  1.6113627189211933e-14  -1.9907988016637202e-13  -3.2134944726912119e-13  -1.6968481228196775e-13  5.4562253534824648e-14  1.2961347188153922e-13  8.5449754649242457e-14  3.1332233913057891e-14  5.3217427444071338e-15  -1.4555623756646533e-15  -1.5824258774597173e-15  -7.6292197949423141e-16  -2.7684526897145713e-16  -1.0375153819170512e-16  -2.2537113264402387e-14  -1.1517587416923843e-14  -1.2275765259289758e-14  -2.0856708960813024e-14  -2.5201422897835409e-14  7.3505133825879140e-15  5.1680644813743280e-14  -3.8156577968001614e-15  -1.4562747878478899e-13  -1.6135153205880466e-13  3.8763107284786706e-15  1.2961347188153937e-13  9.9581570192470725e-14  2.1380057478039370e-14  -1.3332969274990423e-14  -1.2970009431112985e-14  -5.7773141540374296e-15  -1.6240315836365642e-15  -2.4581294068733289e-16  2.7942008997961434e-17  4.7952155695879536e-17  -6.3775249902513747e-15  -3.2123205757422479e-15  -3.3494483883202184e-15  -7.9869662247102896e-15  -9.2757759330001668e-15  1.0359648700840293e-14  3.0166539367259430e-14  -1.3348805106933237e-14  -8.7531683460385750e-14  -5.9026228276344980e-14  5.3435152944906888e-14  8.5449754649242406e-14  2.1380057478039348e-14  -2.4669566726615883e-14  -2.0331913253283912e-14  -5.1476259417801005e-15  9.6475754167274757e-16  1.3483898135446479e-15  6.2788751739024084e-16  1.9010756835298986e-16  4.6509658272332762e-17  -2.2687423106371486e-15  -1.0375065900711221e-15  -1.1963096393980634e-15  -3.4242847744734693e-15  -3.8970138418540762e-15  6.2131935053016743e-15  1.4438139384117046e-14  -1.1233723003231932e-14  -4.3680883381059508e-14  -1.3628094968184288e-14  4.1707583291965322e-14  3.1332233913057897e-14  -1.3332969274990426e-14  -2.0331913253283881e-14  -3.0344891857485851e-15  4.4587670577326728e-15  2.6565938224325060e-15  5.4892666283082286e-16  -9.7412843251938574e-17  -1.2198355650549222e-16  -6.4160980006404811e-17  -5.4106463443541286e-16  -1.6594994675431510e-16  -2.3370925165887099e-16  -1.1853120429515451e-15  -1.5109043969447713e-15  3.0096533151279671e-15  6.5253777412103177e-15  -5.8150098020825185e-15  -1.8410983944287967e-14  -2.2292640600000634e-17  2.0956788626327085e-14  5.3217427444071457e-15  -1.2970009431112984e-14  -5.1476259417800941e-15  4.4587670577326712e-15  2.7933139750410090e-15  -2.6660225903540393e-16  -6.2926685732682387e-16  -2.3965977516367234e-16  -3.4417348660721613e-17  1.6172874105193435e-17  -1.1011799830091536e-16  -3.1386952866823646e-18  -1.1372960229892616e-17  -3.7111560840311755e-16  -6.2336787621612207e-16  1.1160993183324694e-15  2.7233808245085806e-15  -2.2466816828342117e-15  -6.8596238317742146e-15  1.6759070551998656e-15  8.0284220589036538e-15  -1.4555623756646493e-15  -5.7773141540374288e-15  9.6475754167274757e-16  2.6565938224325056e-15  -2.6660225903540225e-16  -8.1846982105968987e-16  -1.1033756152517900e-16  1.0245510785849096e-16  5.9651827995998941e-17  1.9348587149485848e-17  7.3040162246767368e-18  2.4491657381493151e-17  2.8619579421492398e-17  -8.2883946050401238e-17  -2.3797172257999714e-16  3.1449904118109611e-16  1.0448059157799748e-15  -6.2226630441792717e-16  -2.2753050504486887e-15  9.7824052955753127e-16  2.5395861663891196e-15  -1.5824258774597175e-15  -1.6240315836365671e-15  1.3483898135446453e-15  5.4892666283082256e-16  -6.2926685732682279e-16  -1.1033756152517922e-16  1.7146898676760885e-16  4.3847020069810930e-17  -1.2770272338168086e-17  -1.4170738091160570e-17  1.2651902672945202e-17  1.1263037694994301e-17  1.8503950052182812e-17  -5.8489909476546216e-18  -7.8078794142457436e-17  5.2548105452844685e-17  3.4761050142897947e-16  -9.9267885237982099e-17  -6.7013627865451347e-16  3.8133002409273366e-16  6.9499555202874827e-16  -7.6292197949423240e-16  -2.4581294068733289e-16  6.2788751739024025e-16  -9.7412843251938438e-17  -2.3965977516367224e-16  1.0245510785849095e-16  4.3847020069810936e-17  -3.2240468687230045e-17  -1.0177208507304756e-17  1.3295956322973109e-18  3.3203082230859273e-18  2.5063469316920347e-18  5.8146791667017627e-18  3.4089552297467963e-18  -2.1373946903728010e-17  -5.2451362531144347e-18  9.1772560818761229e-17  4.9956147487996957e-18  -1.7541537497846207e-16  1.1857097764475299e-16  1.7243872505456746e-16  -2.7684526897145743e-16  2.7942008997961514e-17  1.9010756835298982e-16  -1.2198355650549207e-16  -3.4417348660721576e-17  5.9651827995998929e-17  -1.2770272338168110e-17  -1.0177208507304750e-17  6.5916069098822297e-18  2.4990335667520418e-18  8.2026535733914126e-19  5.7345953719574540e-20  1.2592071860285773e-18  2.2784204645834878e-18  -5.0051856112476681e-18  -7.6845300692437591e-18  2.2179989863115773e-17  9.8567302535965127e-18  -4.9788238815001720e-17  4.0631738073522273e-17  4.7930125785716813e-17  -1.0375153819170517e-16  4.7952155695879684e-17  4.6509658272332738e-17  -6.4160980006404762e-17  1.6172874105193414e-17  1.9348587149485826e-17  -1.4170738091160573e-17  1.3295956322973211e-18  2.4990335667520406e-18  -2.8111763215943138e-18  -4.1591704576643189e-13  -2.5408122299160806e-13  -2.5181655742455922e-13  -2.9847546357314266e-13  -2.9339701616080189e-13  -1.1325284525554868e-13  8.2670367995742700e-15  -3.6735982186581626e-13  -9.0755398176141732e-13  -7.7929047596784077e-13  -1.4497179004772806e-13  1.8110848176154805e-13  1.2078916078667502e-13  3.3872156426984781e-14  9.6678559001670910e-15  2.4595660070082996e-15  1.8954082335343624e-16  -6.8096538960086916e-17  -9.0797102163296412e-17  -2.2247177276773125e-17  -1.0697359973352286e-18  -2.5408122299160862e-13  -1.2195046058662344e-13  -1.2311468786858969e-13  -1.4981251955719987e-13  -1.4979210120096259e-13  -5.4793274772600888e-14  2.0175135532856281e-14  -1.6868785530283098e-13  -4.6649969223912685e-13  -4.2274301836889425e-13  -1.0045505171051829e-13  7.3263622231377926e-14  5.1006176097485136e-14  1.3593870572895404e-14  3.8745074899755007e-15  8.1882478558228435e-16  -4.2824016559150240e-17  -7.8988148810478407e-17  -5.0512724600814093e-17  -6.2804582225026513e-18  1.6690336996548094e-18  -2.5181655742456180e-13  -1.2311468786859052e-13  -1.2403464928657599e-13  -1.4795530504544423e-13  -1.4338665406623301e-13  -5.2960606311667578e-14  4.2079693609173393e-15  -1.8813522146142748e-13  -4.5830843094109388e-13  -3.8971510212682108e-13  -7.0368135355459458e-14  9.0154050754728411e-14  5.8141808816812868e-14  1.5006132251424157e-14  3.7751012171035417e-15  8.3644547367475632e-16  -5.3506394629987986e-17  -8.8276664478032073e-17  -4.8782974090605951e-17  -1.0225503975990254e-17  -2.0874910313022634e-19  -2.9847546357314821e-13  -1.4981251955720083e-13  -1.4795530504544337e-13  -1.7090661145303627e-13  -1.6574865111548232e-13  -7.7200802502291930e-14  -2.5606216950566477e-14  -2.2284256788459031e-13  -4.9069862875100390e-13  -4.1291145346901135e-13  -8.2824276957604874e-14  8.6041068412023302e-14  5.8006361438138991e-14  1.5601807074666648e-14  4.1497692149089620e-15  8.9919307052236729e-16  -1.4198667010100794e-16  -1.6624581610015701e-16  -9.2258662602111414e-17  -2.7859932981963905e-17  -4.3847200669480987e-18  -2.9339701616080628e-13  -1.4979210120096158e-13  -1.4338665406622980e-13  -1.6574865111548065e-13  -1.6320455351499004e-13  -7.9788872714288137e-14  -3.0308195527788786e-14  -2.2030933645956256e-13  -4.7259355404415663e-13  -3.8012750938902430e-13  -4.4771636536431301e-14  1.1929512452889885e-13  8.1470988990078260e-14  2.9601876425051664e-14  1.1450680040483678e-14  4.2452560447335384e-15  1.1861504263221142e-15  2.7140358407476277e-16  1.3185603658090057e-17  -1.5278915188137887e-17  -5.9963806190318824e-18  -1.1325284525554911e-13  -5.4793274772597196e-14  -5.2960606311663224e-14  -7.7200802502290971e-14  -7.9788872714289159e-14  2.0598789664904533e-15  6.3071537833414340e-14  -1.0417630291130628e-13  -3.4027689794403902e-13  -2.5554103751132691e-13  4.9191851842594492e-14  1.7615685499021628e-13  1.0972832375623289e-13  4.1863742312172303e-14  1.6732250191459347e-14  6.8376750859994012e-15  2.6060332056596834e-15  1.0148815552531764e-15  3.4082499242957377e-16  9.7004508801046413e-17  2.0798681766529835e-17  8.2670367995777789e-15  2.0175135532860775e-14  4.2079693609196617e-15  -2.5606216950568458e-14  -3.0308195527791215e-14  6.3071537833413785e-14  1.4933596186659441e-13  -3.7821509149981501e-15  -2.6598713894343423e-13  -2.4452123056552547e-13  -3.5971291967333943e-15  9.2351365556610302e-14  3.1054716943670756e-14  -1.3526094970913467e-14  -1.4958353547783220e-14  -8.4170218380996626e-15  -3.5880467019767728e-15  -1.0357797865644611e-15  -1.5981203717782517e-16  3.5858897667937042e-17  3.0097650319654176e-17  -3.6735982186581222e-13  -1.6868785530282858e-13  -1.8813522146142899e-13  -2.2284256788459420e-13  -2.2030933645956438e-13  -1.0417630291130522e-13  -3.7821509149966481e-15  -1.9163002248591771e-13  -5.3830929787850817e-13  -5.9100222744010009e-13  -3.5088883176285957e-13  -1.8040668437749577e-13  -1.4098385827595321e-13  -1.0426087299275946e-13  -5.7336859679161708e-14  -2.7160656885098023e-14  -1.1792089947659541e-14  -4.5359815595353173e-15  -1.5216491205978354e-15  -4.0878229996479293e-16  -8.0358275332294643e-17  -9.0755398176141510e-13  -4.6649969223912746e-13  -4.5830843094109772e-13  -4.9069862875100723e-13  -4.7259355404415532e-13  -3.4027689794403609e-13  -2.6598713894343347e-13  -5.3830929787851089e-13  -9.5968073646281591e-13  -9.7871184760281204e-13  -5.8574536198685484e-13  -2.3616950788388816e-13  -8.4906264385269056e-14  -2.0893094201541628e-14  6.3840318356830125e-15  8.4542491065153551e-15  4.0485519724611225e-15  1.1622242567577466e-15  8.4249580640695586e-17  -9.0006408504095650e-17  -4.5404313296142408e-17  -7.7929047596784249e-13  -4.2274301836889592e-13  -3.8971510212682330e-13  -4.1291145346901039e-13  -3.8012750938902031e-13  -2.5554103751132495e-13  -2.4452123056552683e-13  -5.9100222744010362e-13  -9.7871184760281406e-13  -8.1179651046756467e-13  -2.0149342900974534e-13  2.3622407453289333e-13  3.1449217196069018e-13  2.3412658258519399e-13  1.3724041732411033e-13  6.5561310872122830e-14  2.6404359256290335e-14  9.3198382945800325e-15  2.8791633018638908e-15  7.8363250760405836e-16  1.8841917810334489e-16  -1.4497179004773026e-13  -1.0045505171051920e-13  -7.0368135355458852e-14  -8.2824276957602248e-14  -4.4771636536429382e-14  4.9191851842593457e-14  -3.5971291967367202e-15  -3.5088883176286330e-13  -5.8574536198685595e-13  -2.0149342900974574e-13  4.7503295142052774e-13  7.4445856038039897e-13  5.5461750174078714e-13  2.7688053592336572e-13  1.0220400061177292e-13  2.5942729002692170e-14  2.8026569156985192e-15  -1.1411602774270960e-15  -8.8506068107716512e-16  -3.5409635069751835e-16  -1.1223670766377546e-16  1.8110848176154785e-13  7.3263622231378608e-14  9.0154050754730228e-14  8.6041068412024514e-14  1.1929512452889802e-13  1.7615685499021385e-13  9.2351365556607563e-14  -1.8040668437749721e-13  -2.3616950788388836e-13  2.3622407453289408e-13  7.4445856038040231e-13  6.9878643448018245e-13  2.9663426396509247e-13  5.7408933146935341e-15  -7.3465100589685858e-14  -5.6597378967467823e-14  -2.7426773790290564e-14  -1.0150910249763293e-14  -3.1412753453358840e-15  -8.5138933322973414e-16  -2.0824426879288421e-16  1.2078916078667712e-13  5.1006176097486101e-14  5.8141808816813486e-14  5.8006361438138739e-14  8.1470988990076834e-14  1.0972832375623113e-13  3.1054716943669885e-14  -1.4098385827595308e-13  -8.4906264385267870e-14  3.1449217196069155e-13  5.5461750174078755e-13  2.9663426396509222e-13  -7.7532141233606514e-14  -1.8856733472802245e-13  -1.1538177435066905e-13  -3.7867186512494716e-14  -4.4672723128294722e-15  2.8102427762588563e-15  2.2305062438365997e-15  9.8394725453446542e-16  3.4085679274080538e-16  3.3872156426986921e-14  1.3593870572895849e-14  1.5006132251423882e-14  1.5601807074665963e-14  2.9601876425050945e-14  4.1863742312171912e-14  -1.3526094970913171e-14  -1.0426087299275880e-13  -2.0893094201540997e-14  2.3412658258519389e-13  2.7688053592336536e-13  5.7408933146933069e-15  -1.8856733472802270e-13  -1.3077717300368197e-13  -1.7094909865940289e-14  2.2830080926522643e-14  1.7129563015264567e-14  6.5873845643720266e-15  1.5089632931832768e-15  9.4483205656441948e-17  -1.0145850749660644e-16  9.6678559001680392e-15  3.8745074899754487e-15  3.7751012171031157e-15  4.1497692149086055e-15  1.1450680040483548e-14  1.6732250191459363e-14  -1.4958353547783025e-14  -5.7336859679161494e-14  6.3840318356830788e-15  1.3724041732411023e-13  1.0220400061177276e-13  -7.3465100589686022e-14  -1.1538177435066923e-13  -1.7094909865940261e-14  3.8092181225104120e-14  2.3287731076254929e-14  3.1014765462463828e-15  -2.5075915343447933e-15  -1.8634299394447847e-15  -6.9885449607458927e-16  -1.7024146878227806e-16  2.4595660070084822e-15  8.1882478558214670e-16  8.3644547367452893e-16  8.9919307052230221e-16  4.2452560447336054e-15  6.8376750859994248e-15  -8.4170218380996216e-15  -2.7160656885097960e-14  8.4542491065153819e-15  6.5561310872122742e-14  2.5942729002692006e-14  -5.6597378967467798e-14  -3.7867186512494716e-14  2.2830080926522605e-14  2.3287731076254914e-14  -9.5885203250661403e-16  -6.4692285510134802e-15  -2.4772181461539457e-15  -1.3228688663197214e-16  2.8697826242677749e-16  1.6768872376069676e-16  1.8954082335340685e-16  -4.2824016559212215e-17  -5.3506394630058170e-17  -1.4198667010098581e-16  1.1861504263221694e-15  2.6060332056596606e-15  -3.5880467019767839e-15  -1.1792089947659513e-14  4.0485519724611083e-15  2.6404359256290300e-14  2.8026569156985026e-15  -2.7426773790290545e-14  -4.4672723128294959e-15  1.7129563015264549e-14  3.1014765462463891e-15  -6.4692285510134747e-15  -1.9276037534196936e-15  1.0520931625747642e-15  7.0399141126707960e-16  1.6059213863186381e-16  -1.5958960282889915e-17  -6.8096538960108770e-17  -7.8988148810491682e-17  -8.8276664478050205e-17  -1.6624581610013968e-16  2.7140358407478037e-16  1.0148815552531549e-15  -1.0357797865644686e-15  -4.5359815595352991e-15  1.1622242567577424e-15  9.3198382945800261e-15  -1.1411602774270995e-15  -1.0150910249763297e-14  2.8102427762588524e-15  6.5873845643720219e-15  -2.50759153