<?xml version="1.0"?>
<VTKFile type="UnstructuredGrid"  version="0.1"  >
<UnstructuredGrid>
<Piece  NumberOfPoints="9261" NumberOfCells="48000">
<Points>
<DataArray  type="Float64"  NumberOfComponents="3"  format="ascii">-2 -2 -2  -1.8 -2 -2  -1.6 -2 -2  -1.4 -2 -2  -1.2 -2 -2  -1 -2 -2  -0.8 -2 -2  -0.6000000000000001 -2 -2  -0.3999999999999999 -2 -2  -0.2 -2 -2  0 -2 -2  0.2000000000000002 -2 -2  0.3999999999999999 -2 -2  0.6000000000000001 -2 -2  0.7999999999999998 -2 -2  1 -2 -2  1.2 -2 -2  1.4 -2 -2  1.6 -2 -2  1.8 -2 -2  2 -2 -2  -2 -1.8 -2  -1.8 -1.8 -2  -1.6 -1.8 -2  -1.4 -1.8 -2  -1.2 -1.8 -2  -1 -1.8 -2  -0.8 -1.8 -2  -0.6000000000000001 -1.8 -2  -0.3999999999999999 -1.8 -2  -0.2 -1.8 -2  0 -1.8 -2  0.2000000000000002 -1.8 -2  0.3999999999999999 -1.8 -2  0.6000000000000001 -1.8 -2  0.7999999999999998 -1.8 -2  1 -1.8 -2  1.2 -1.8 -2  1.4 -1.8 -2  1.6 -1.8 -2  1.8 -1.8 -2  2 -1.8 -2  -2 -1.6 -2  -1.8 -1.6 -2  -1.6 -1.6 -2  -1.4 -1.6 -2  -1.2 -1.6 -2  -1 -1.6 -2  -0.8 -1.6 -2  -0.6000000000000001 -1.6 -2  -0.3999999999999999 -1.6 -2  -0.2 -1.6 -2  0 -1.6 -2  0.2000000000000002 -1.6 -2  0.3999999999999999 -1.6 -2  0.6000000000000001 -1.6 -2  0.7999999999999998 -1.6 -2  1 -1.6 -2  1.2 -1.6 -2  1.4 -1.6 -2  1.6 -1.6 -2  1.8 -1.6 -2  2 -1.6 -2  -2 -1.4 -2  -1.8 -1.4 -2  -1.6 -1.4 -2  -1.4 -1.4 -2  -1.2 -1.4 -2  -1 -1.4 -2  -0.8 -1.4 -2  -0.6000000000000001 -1.4 -2  -0.3999999999999999 -1.4 -2  -0.2 -1.4 -2  0 -1.4 -2  0.2000000000000002 -1.4 -2  0.3999999999999999 -1.4 -2  0.6000000000000001 -1.4 -2  0.7999999999999998 -1.4 -2  1 -1.4 -2  1.2 -1.4 -2  1.4 -1.4 -2  1.6 -1.4 -2  1.8 -1.4 -2  2 -1.4 -2  -2 -1.2 -2  -1.8 -1.2 -2  -1.6 -1.2 -2  -1.4 -1.2 -2  -1.2 -1.2 -2  -1 -1.2 -2  -0.8 -1.2 -2  -0.6000000000000001 -1.2 -2  -0.3999999999999999 -1.2 -2  -0.2 -1.2 -2  0 -1.2 -2  0.2000000000000002 -1.2 -2  0.3999999999999999 -1.2 -2  0.6000000000000001 -1.2 -2  0.7999999999999998 -1.2 -2  1 -1.2 -2  1.2 -1.2 -2  1.4 -1.2 -2  1.6 -1.2 -2  1.8 -1.2 -2  2 -1.2 -2  -2 -1 -2  -1.8 -1 -2  -1.6 -1 -2  -1.4 -1 -2  -1.2 -1 -2  -1 -1 -2  -0.8 -1 -2  -0.6000000000000001 -1 -2  -0.3999999999999999 -1 -2  -0.2 -1 -2  0 -1 -2  0.2000000000000002 -1 -2  0.3999999999999999 -1 -2  0.6000000000000001 -1 -2  0.7999999999999998 -1 -2  1 -1 -2  1.2 -1 -2  1.4 -1 -2  1.6 -1 -2  1.8 -1 -2  2 -1 -2  -2 -0.8 -2  -1.8 -0.8 -2  -1.6 -0.8 -2  -1.4 -0.8 -2  -1.2 -0.8 -2  -1 -0.8 -2  -0.8 -0.8 -2  -0.6000000000000001 -0.8 -2  -0.3999999999999999 -0.8 -2  -0.2 -0.8 -2  0 -0.8 -2  0.2000000000000002 -0.8 -2  0.3999999999999999 -0.8 -2  0.6000000000000001 -0.8 -2  0.7999999999999998 -0.8 -2  1 -0.8 -2  1.2 -0.8 -2  1.4 -0.8 -2  1.6 -0.8 -2  1.8 -0.8 -2  2 -0.8 -2  -2 -0.6000000000000001 -2  -1.8 -0.6000000000000001 -2  -1.6 -0.6000000000000001 -2  -1.4 -0.6000000000000001 -2  -1.2 -0.6000000000000001 -2  -1 -0.6000000000000001 -2  -0.8 -0.6000000000000001 -2  -0.6000000000000001 -0.6000000000000001 -2  -0.3999999999999999 -0.6000000000000001 -2  -0.2 -0.6000000000000001 -2  0 -0.6000000000000001 -2  0.2000000000000002 -0.6000000000000001 -2  0.3999999999999999 -0.6000000000000001 -2  0.6000000000000001 -0.6000000000000001 -2  0.7999999999999998 -0.6000000000000001 -2  1 -0.6000000000000001 -2  1.2 -0.6000000000000001 -2  1.4 -0.6000000000000001 -2  1.6 -0.6000000000000001 -2  1.8 -0.6000000000000001 -2  2 -0.6000000000000001 -2  -2 -0.3999999999999999 -2  -1.8 -0.3999999999999999 -2  -1.6 -0.3999999999999999 -2  -1.4 -0.3999999999999999 -2  -1.2 -0.3999999999999999 -2  -1 -0.3999999999999999 -2  -0.8 -0.3999999999999999 -2  -0.6000000000000001 -0.3999999999999999 -2  -0.3999999999999999 -0.3999999999999999 -2  -0.2 -0.3999999999999999 -2  0 -0.3999999999999999 -2  0.2000000000000002 -0.3999999999999999 -2  0.3999999999999999 -0.3999999999999999 -2  0.6000000000000001 -0.3999999999999999 -2  0.7999999999999998 -0.3999999999999999 -2  1 -0.3999999999999999 -2  1.2 -0.3999999999999999 -2  1.4 -0.3999999999999999 -2  1.6 -0.3999999999999999 -2  1.8 -0.3999999999999999 -2  2 -0.3999999999999999 -2  -2 -0.2 -2  -1.8 -0.2 -2  -1.6 -0.2 -2  -1.4 -0.2 -2  -1.2 -0.2 -2  -1 -0.2 -2  -0.8 -0.2 -2  -0.6000000000000001 -0.2 -2  -0.3999999999999999 -0.2 -2  -0.2 -0.2 -2  0 -0.2 -2  0.2000000000000002 -0.2 -2  0.3999999999999999 -0.2 -2  0.6000000000000001 -0.2 -2  0.7999999999999998 -0.2 -2  1 -0.2 -2  1.2 -0.2 -2  1.4 -0.2 -2  1.6 -0.2 -2  1.8 -0.2 -2  2 -0.2 -2  -2 0 -2  -1.8 0 -2  -1.6 0 -2  -1.4 0 -2  -1.2 0 -2  -1 0 -2  -0.8 0 -2  -0.6000000000000001 0 -2  -0.3999999999999999 0 -2  -0.2 0 -2  0 0 -2  0.2000000000000002 0 -2  0.3999999999999999 0 -2  0.6000000000000001 0 -2  0.7999999999999998 0 -2  1 0 -2  1.2 0 -2  1.4 0 -2  1.6 0 -2  1.8 0 -2  2 0 -2  -2 0.2000000000000002 -2  -1.8 0.2000000000000002 -2  -1.6 0.2000000000000002 -2  -1.4 0.2000000000000002 -2  -1.2 0.2000000000000002 -2  -1 0.2000000000000002 -2  -0.8 0.2000000000000002 -2  -0.6000000000000001 0.2000000000000002 -2  -0.3999999999999999 0.2000000000000002 -2  -0.2 0.2000000000000002 -2  0 0.2000000000000002 -2  0.2000000000000002 0.2000000000000002 -2  0.3999999999999999 0.2000000000000002 -2  0.6000000000000001 0.2000000000000002 -2  0.7999999999999998 0.2000000000000002 -2  1 0.2000000000000002 -2  1.2 0.2000000000000002 -2  1.4 0.2000000000000002 -2  1.6 0.2000000000000002 -2  1.8 0.2000000000000002 -2  2 0.2000000000000002 -2  -2 0.3999999999999999 -2  -1.8 0.3999999999999999 -2  -1.6 0.3999999999999999 -2  -1.4 0.3999999999999999 -2  -1.2 0.3999999999999999 -2  -1 0.3999999999999999 -2  -0.8 0.3999999999999999 -2  -0.6000000000000001 0.3999999999999999 -2  -0.3999999999999999 0.3999999999999999 -2  -0.2 0.3999999999999999 -2  0 0.3999999999999999 -2  0.2000000000000002 0.3999999999999999 -2  0.3999999999999999 0.3999999999999999 -2  0.6000000000000001 0.3999999999999999 -2  0.7999999999999998 0.3999999999999999 -2  1 0.3999999999999999 -2  1.2 0.3999999999999999 -2  1.4 0.3999999999999999 -2  1.6 0.3999999999999999 -2  1.8 0.3999999999999999 -2  2 0.3999999999999999 -2  -2 0.6000000000000001 -2  -1.8 0.6000000000000001 -2  -1.6 0.6000000000000001 -2  -1.4 0.6000000000000001 -2  -1.2 0.6000000000000001 -2  -1 0.6000000000000001 -2  -0.8 0.6000000000000001 -2  -0.6000000000000001 0.6000000000000001 -2  -0.3999999999999999 0.6000000000000001 -2  -0.2 0.6000000000000001 -2  0 0.6000000000000001 -2  0.2000000000000002 0.6000000000000001 -2  0.3999999999999999 0.6000000000000001 -2  0.6000000000000001 0.6000000000000001 -2  0.7999999999999998 0.6000000000000001 -2  1 0.6000000000000001 -2  1.2 0.6000000000000001 -2  1.4 0.6000000000000001 -2  1.6 0.6000000000000001 -2  1.8 0.6000000000000001 -2  2 0.6000000000000001 -2  -2 0.7999999999999998 -2  -1.8 0.7999999999999998 -2  -1.6 0.7999999999999998 -2  -1.4 0.7999999999999998 -2  -1.2 0.7999999999999998 -2  -1 0.7999999999999998 -2  -0.8 0.7999999999999998 -2  -0.6000000000000001 0.7999999999999998 -2  -0.3999999999999999 0.7999999999999998 -2  -0.2 0.7999999999999998 -2  0 0.7999999999999998 -2  0.2000000000000002 0.7999999999999998 -2  0.3999999999999999 0.7999999999999998 -2  0.6000000000000001 0.7999999999999998 -2  0.7999999999999998 0.7999999999999998 -2  1 0.7999999999999998 -2  1.2 0.7999999999999998 -2  1.4 0.7999999999999998 -2  1.6 0.7999999999999998 -2  1.8 0.7999999999999998 -2  2 0.7999999999999998 -2  -2 1 -2  -1.8 1 -2  -1.6 1 -2  -1.4 1 -2  -1.2 1 -2  -1 1 -2  -0.8 1 -2  -0.6000000000000001 1 -2  -0.3999999999999999 1 -2  -0.2 1 -2  0 1 -2  0.2000000000000002 1 -2  0.3999999999999999 1 -2  0.6000000000000001 1 -2  0.7999999999999998 1 -2  1 1 -2  1.2 1 -2  1.4 1 -2  1.6 1 -2  1.8 1 -2  2 1 -2  -2 1.2 -2  -1.8 1.2 -2  -1.6 1.2 -2  -1.4 1.2 -2  -1.2 1.2 -2  -1 1.2 -2  -0.8 1.2 -2  -0.6000000000000001 1.2 -2  -0.3999999999999999 1.2 -2  -0.2 1.2 -2  0 1.2 -2  0.2000000000000002 1.2 -2  0.3999999999999999 1.2 -2  0.6000000000000001 1.2 -2  0.7999999999999998 1.2 -2  1 1.2 -2  1.2 1.2 -2  1.4 1.2 -2  1.6 1.2 -2  1.8 1.2 -2  2 1.2 -2  -2 1.4 -2  -1.8 1.4 -2  -1.6 1.4 -2  -1.4 1.4 -2  -1.2 1.4 -2  -1 1.4 -2  -0.8 1.4 -2  -0.6000000000000001 1.4 -2  -0.3999999999999999 1.4 -2  -0.2 1.4 -2  0 1.4 -2  0.2000000000000002 1.4 -2  0.3999999999999999 1.4 -2  0.6000000000000001 1.4 -2  0.7999999999999998 1.4 -2  1 1.4 -2  1.2 1.4 -2  1.4 1.4 -2  1.6 1.4 -2  1.8 1.4 -2  2 1.4 -2  -2 1.6 -2  -1.8 1.6 -2  -1.6 1.6 -2  -1.4 1.6 -2  -1.2 1.6 -2  -1 1.6 -2  -0.8 1.6 -2  -0.6000000000000001 1.6 -2  -0.3999999999999999 1.6 -2  -0.2 1.6 -2  0 1.6 -2  0.2000000000000002 1.6 -2  0.3999999999999999 1.6 -2  0.6000000000000001 1.6 -2  0.7999999999999998 1.6 -2  1 1.6 -2  1.2 1.6 -2  1.4 1.6 -2  1.6 1.6 -2  1.8 1.6 -2  2 1.6 -2  -2 1.8 -2  -1.8 1.8 -2  -1.6 1.8 -2  -1.4 1.8 -2  -1.2 1.8 -2  -1 1.8 -2  -0.8 1.8 -2  -0.6000000000000001 1.8 -2  -0.3999999999999999 1.8 -2  -0.2 1.8 -2  0 1.8 -2  0.2000000000000002 1.8 -2  0.3999999999999999 1.8 -2  0.6000000000000001 1.8 -2  0.7999999999999998 1.8 -2  1 1.8 -2  1.2 1.8 -2  1.4 1.8 -2  1.6 1.8 -2  1.8 1.8 -2  2 1.8 -2  -2 2 -2  -1.8 2 -2  -1.6 2 -2  -1.4 2 -2  -1.2 2 -2  -1 2 -2  -0.8 2 -2  -0.6000000000000001 2 -2  -0.3999999999999999 2 -2  -0.2 2 -2  0 2 -2  0.2000000000000002 2 -2  0.3999999999999999 2 -2  0.6000000000000001 2 -2  0.7999999999999998 2 -2  1 2 -2  1.2 2 -2  1.4 2 -2  1.6 2 -2  1.8 2 -2  2 2 -2  -2 -2 -1.8  -1.8 -2 -1.8  -1.6 -2 -1.8  -1.4 -2 -1.8  -1.2 -2 -1.8  -1 -2 -1.8  -0.8 -2 -1.8  -0.6000000000000001 -2 -1.8  -0.3999999999999999 -2 -1.8  -0.2 -2 -1.8  0 -2 -1.8  0.2000000000000002 -2 -1.8  0.3999999999999999 -2 -1.8  0.6000000000000001 -2 -1.8  0.7999999999999998 -2 -1.8  1 -2 -1.8  1.2 -2 -1.8  1.4 -2 -1.8  1.6 -2 -1.8  1.8 -2 -1.8  2 -2 -1.8  -2 -1.8 -1.8  -1.8 -1.8 -1.8  -1.6 -1.8 -1.8  -1.4 -1.8 -1.8  -1.2 -1.8 -1.8  -1 -1.8 -1.8  -0.8 -1.8 -1.8  -0.6000000000000001 -1.8 -1.8  -0.3999999999999999 -1.8 -1.8  -0.2 -1.8 -1.8  0 -1.8 -1.8  0.2000000000000002 -1.8 -1.8  0.3999999999999999 -1.8 -1.8  0.6000000000000001 -1.8 -1.8  0.7999999999999998 -1.8 -1.8  1 -1.8 -1.8  1.2 -1.8 -1.
[...]
<PointData  Scalars="uA"> 
<DataArray  type="Float64"  Name="uA"  format="ascii">2.5869812017691841e-04  2.6271306320664286e-04  2.6543101213625527e-04  2.6743520455651534e-04  2.6899225318435555e-04  2.7022800544549075e-04  2.7121672664383724e-04  2.7201428795526489e-04  2.7266975034858482e-04  2.7322944202115020e-04  2.7373860877982921e-04  2.7424240415722825e-04  2.7478678718119318e-04  2.7541949796135244e-04  2.7619129873581247e-04  2.7715814004218423e-04  2.7838636132156635e-04  2.7996720996495384e-04  2.8205907313014450e-04  2.8500783936256371e-04  2.8963878631875105e-04  2.6271306320664280e-04  2.6819968985858860e-04  2.7114463834913025e-04  2.7319343029210530e-04  2.7476756236008838e-04  2.7601489091395696e-04  2.7701272435248022e-04  2.7781760254442497e-04  2.7847910812858154e-04  2.7904414686090375e-04  2.7955857288167250e-04  2.8006815654978688e-04  2.8061947317672877e-04  2.8126086676484011e-04  2.8204365809736669e-04  2.8302425570089047e-04  2.8426946929673382e-04  2.8587299547468093e-04  2.8801367910213829e-04  2.9119017094130694e-04  2.9730359035084493e-04  2.6543101213625468e-04  2.7114463834912992e-04  2.7418348211517840e-04  2.7626528925672587e-04  2.7785306093294592e-04  2.7910772566405679e-04  2.8011040674866760e-04  2.8091891025987053e-04  2.8158340863358874e-04  2.8215121175617988e-04  2.8266852001488074e-04  2.8318142701448006e-04  2.8373681923337611e-04  2.8438334592635947e-04  2.8517264554011159e-04  2.8616154486988576e-04  2.8741775590038584e-04  2.8903785531681544e-04  2.9121051352515407e-04  2.9446063988799748e-04  3.0067461298334877e-04  2.6743520455651474e-04  2.7319343029210482e-04  2.7626528925672560e-04  2.7836457585605139e-04  2.7996152303351863e-04  2.8122147966718960e-04  2.8222759257010206e-04  2.8303859221672731e-04  2.8370513875932237e-04  2.8427486019496826e-04  2.8479420553727643e-04  2.8530948471645158e-04  2.8586778318155984e-04  2.8651794229031345e-04  2.8731180786458079e-04  2.8830649549138132e-04  2.8957026906929967e-04  2.9120091934959567e-04  2.9338936957260989e-04  2.9666111767261637e-04  3.0288027154326189e-04  2.6899225318435501e-04  2.7476756236008784e-04  2.7785306093294543e-04  2.7996152303351842e-04  2.8156432122863201e-04  2.8282808058536862e-04  2.8383680704727144e-04  2.8464975354885276e-04  2.8531791205765238e-04  2.8588914509758564e-04  2.8641008629326221e-04  2.8692720209867772e-04  2.8748771649263617e-04  2.8814059840951670e-04  2.8893782223444520e-04  2.8993666002543678e-04  2.9120560929045593e-04  2.9284281095577147e-04  2.9503948284796341e-04  2.9832041136631517e-04  3.0454674547416725e-04  2.7022800544549037e-04  2.7601489091395653e-04  2.7910772566405609e-04  2.8122147966718868e-04  2.8282808058536775e-04  2.8409457246036403e-04  2.8510531191193103e-04  2.8591982199893890e-04  2.8658930019445259e-04  2.8716177112388412e-04  2.8768400219191919e-04  2.8820257368300642e-04  2.8876480755929651e-04  2.8941975748956246e-04  2.9021947317419501e-04  2.9122129959814396e-04  2.9249381256578788e-04  2.9413523111416963e-04  2.9633682163329533e-04  2.9962355266384031e-04  3.0585902376866327e-04  2.7121672664383691e-04  2.7701272435247989e-04  2.8011040674866700e-04  2.8222759257010108e-04  2.8383680704727047e-04  2.8510531191193082e-04  2.8611762302059579e-04  2.8693340403281855e-04  2.8760397667063368e-04  2.8817747451973170e-04  2.8870076024967113e-04  2.8922049669178462e-04  2.8978407579033079e-04  2.9044060843751466e-04  2.9124218898704220e-04  2.9224619560286834e-04  2.9352122809457712e-04  2.9516552963897700e-04  2.9737045739097273e-04  3.0066154302313354e-04  3.0690547376286510e-04  2.7201428795526478e-04  2.7781760254442470e-04  2.8091891025987031e-04  2.8303859221672688e-04  2.8464975354885232e-04  2.8591982199893874e-04  2.8693340403281785e-04  2.8775024373186778e-04  2.8842174124834024e-04  2.8899610505038812e-04  2.8952026685817193e-04  2.9004095083518693e-04  2.9060560097082317e-04  2.9126336965846431e-04  2.9206638150336688e-04  2.9307203417240895e-04  2.9434894039540970e-04  2.9599536902167743e-04  2.9820280194299987e-04  3.0149736744714093e-04  3.0774840522834561e-04  2.7266975034858504e-04  2.7847910812858192e-04  2.8158340863358884e-04  2.8370513875932281e-04  2.8531791205765238e-04  2.8658930019445254e-04  2.8760397667063374e-04  2.8842174124834072e-04  2.8909405028903075e-04  2.8966916857582289e-04  2.9019408170688244e-04  2.9071556291691500e-04  2.9128109864096292e-04  2.9193987586889348e-04  2.9274404550746916e-04  2.9375102431688322e-04  2.9502944234641366e-04  2.9667760447548444e-04  2.9888712402902041e-04  3.0218465246726624e-04  3.0844165371656093e-04  2.7322944202115074e-04  2.7904414686090424e-04  2.8215121175618042e-04  2.8427486019496880e-04  2.8588914509758575e-04  2.8716177112388461e-04  2.8817747451973224e-04  2.8899610505038920e-04  2.8966916857582387e-04  2.9024497953242592e-04  2.9077057150255717e-04  2.9129276218280359e-04  2.9185907764968513e-04  2.9251873909333717e-04  2.9332392640034994e-04  2.9433208180709507e-04  2.9561186293954370e-04  2.9726162247474639e-04  2.9947310460719766e-04  3.0277341089074487e-04  3.0903574057050215e-04  2.7373860877983008e-04  2.7955857288167359e-04  2.8266852001488160e-04  2.8479420553727708e-04  2.8641008629326275e-04  2.8768400219191990e-04  2.8870076024967183e-04  2.8952026685817285e-04  2.9019408170688368e-04  2.9077057150255815e-04  2.9129681956213183e-04  2.9181968980295122e-04  2.9238675059567627e-04  2.9304726177588726e-04  2.9385343931931515e-04  2.9486276140141377e-04  2.9614392706831774e-04  2.9779535187809427e-04  3.0000891804511610e-04  3.0331214336150124e-04  3.0957976377276046e-04  2.7424240415722928e-04  2.8006815654978796e-04  2.8318142701448147e-04  2.8530948471645288e-04  2.8692720209867869e-04  2.8820257368300718e-04  2.8922049669178533e-04  2.9004095083518813e-04  2.9071556291691657e-04  2.9129276218280500e-04  2.9181968980295279e-04  2.9234326292239992e-04  2.9291109918412454e-04  2.9357250511119568e-04  2.9437974296332150e-04  2.9539034021685586e-04  2.9667305457214629e-04  2.9832638543824774e-04  3.0054237581286016e-04  3.0384897892387453e-04  3.1012247029630594e-04  2.7478678718119404e-04  2.8061947317672975e-04  2.8373681923337724e-04  2.8586778318156125e-04  2.8748771649263747e-04  2.8876480755929813e-04  2.8978407579033209e-04  2.9060560097082463e-04  2.9128109864096476e-04  2.9185907764968708e-04  2.9238675059567812e-04  2.9291109918412606e-04  2.9347980066835575e-04  2.9414221884844745e-04  2.9495067444594033e-04  2.9596275955316687e-04  2.9724731087214492e-04  2.9890293975091075e-04  3.0112189193165853e-04  3.0443263421184980e-04  3.1071319241105167e-04  2.7541949796135341e-04  2.8126086676484119e-04  2.8438334592636072e-04  2.8651794229031470e-04  2.8814059840951800e-04  2.8941975748956366e-04  2.9044060843751634e-04  2.9126336965846643e-04  2.9193987586889560e-04  2.9251873909333945e-04  2.9304726177588976e-04  2.9357250511119818e-04  2.9414221884844881e-04  2.9480583623905270e-04  2.9561574945022567e-04  2.9662963111229895e-04  2.9791641910779964e-04  2.9957487108091946e-04  3.0179749655787481e-04  3.0511341415603193e-04  3.1140282489771872e-04  2.7619129873581317e-04  2.8204365809736734e-04  2.8517264554011251e-04  2.8731180786458220e-04  2.8893782223444651e-04  2.9021947317419642e-04  2.9124218898704405e-04  2.9206638150336905e-04  2.9274404550747165e-04  2.9332392640035292e-04  2.9385343931931840e-04  2.9437974296332508e-04  2.9495067444594304e-04  2.9561574945022697e-04  2.9642744414278162e-04  2.9744352631910857e-04  2.9873305636089341e-04  3.0039497500153751e-04  3.0262212914033125e-04  3.0594447572964377e-04  3.1224501908699116e-04  2.7715814004218488e-04  2.8302425570089123e-04  2.8616154486988657e-04  2.8830649549138246e-04  2.8993666002543852e-04  2.9122129959814548e-04  2.9224619560287024e-04  2.9307203417241150e-04  2.9375102431688615e-04  2.9433208180709849e-04  2.9486276140141784e-04  2.9539034021686106e-04  2.9596275955317099e-04  2.9662963111230149e-04  2.9744352631910965e-04  2.9846231939591314e-04  2.9975520984993926e-04  3.0142135346480610e-04  3.0365400202359515e-04  3.0698413176382945e-04  3.1329826989285882e-04  2.7838636132156689e-04  2.8426946929673442e-04  2.8741775590038665e-04  2.8957026906930086e-04  2.9120560929045717e-04  2.9249381256578913e-04  2.9352122809457902e-04  2.9434894039541241e-04  2.9502944234641675e-04  2.9561186293954750e-04  2.9614392706832230e-04  2.9667305457215182e-04  2.9724731087214996e-04  2.9791641910780300e-04  2.9873305636089536e-04  2.9975520984994012e-04  3.0105222641302012e-04  3.0272349607203639e-04  3.0496270519420727e-04  3.0830186532468894e-04  3.1463128168112542e-04  2.7996720996495428e-04  2.8587299547468137e-04  2.8903785531681614e-04  2.9120091934959648e-04  2.9284281095577245e-04  2.9413523111417093e-04  2.9516552963897879e-04  2.9599536902168014e-04  2.9667760447548764e-04  2.9726162247475051e-04  2.9779535187809904e-04  2.9832638543825338e-04  2.9890293975091714e-04  2.9957487108092380e-04  3.0039497500154038e-04  3.0142135346480795e-04  3.0272349607203715e-04  3.0440103148634406e-04  3.0664806681397988e-04  3.0999721732713763e-04  3.1634015198389218e-04  2.8205907313014504e-04  2.8801367910213894e-04  2.9121051352515488e-04  2.9338936957261087e-04  2.9503948284796450e-04  2.9633682163329674e-04  2.9737045739097447e-04  2.9820280194300253e-04  2.9888712402902377e-04  2.9947310460720199e-04  3.0000891804512120e-04  3.0054237581286585e-04  3.0112189193166460e-04  3.0179749655787964e-04  3.0262212914033471e-04  3.0365400202359732e-04  3.0496270519420857e-04  3.0664806681398042e-04  3.0890470842441959e-04  3.1226542349674732e-04  3.1861265721703206e-04  2.8500783936256425e-04  2.9119017094130753e-04  2.9446063988799824e-04  2.9666111767261735e-04  2.9832041136631642e-04  2.9962355266384194e-04  3.0066154302313522e-04  3.0149736744714342e-04  3.0218465246726960e-04  3.0277341089074910e-04  3.0331214336150656e-04  3.0384897892388033e-04  3.0443263421185609e-04  3.0511341415603854e-04  3.0594447572964789e-04  3.0698413176383210e-04  3.0830186532469057e-04  3.0999721732713844e-04  3.1226542349674765e-04  3.1564552665585400e-04  3.2201569132098834e-04  2.8963878631875148e-04  2.9730359035084553e-04  3.0067461298334948e-04  3.0288027154326286e-04  3.0454674547416845e-04  3.0585902376866478e-04  3.0690547376286656e-04  3.0774840522834805e-04  3.0844165371656434e-04  3.0903574057050660e-04  3.0957976377276588e-04  3.1012247029631201e-04  3.1071319241105812e-04  3.1140282489772620e-04  3.1224501908699604e-04  3.1329826989286180e-04  3.1463128168112716e-04  3.1634015198389305e-04  3.1861265721703250e-04  3.2201569132098845e-04  3.2905316646924924e-04  2.9638384936852636e-04  2.9892710648033382e-04  3.0132003491682604e-04  3.0332378486936962e-04  3.0495561161582627e-04  3.0627222743916024e-04  3.0733058868791512e-04  3.0818428892101404e-04  3.0888460782379991e-04  3.0948142781576904e-04  3.1002390598072261e-04  3.1056118843894652e-04  3.1114325328121973e-04  3.1182182326371419e-04  3.1265129176882161e-04  3.1368976176023218e-04  3.1500050323919279e-04  3.1665352439992666e-04  3.1872049303663006e-04  3.2121892071470246e-04  3.2378639178955843e-04  2.9892710648033377e-04  3.0148413726066548e-04  3.0391335035338015e-04  3.0593014667095863e-04  3.0756698123909654e-04  3.0888628887208665e-04  3.0994652978886812e-04  3.1080176167790899e-04  3.1150352831357629e-04  3.1210194821161357e-04  3.1264641287578616e-04  3.1318630176792778e-04  3.1377182181989357e-04  3.1445491428093870e-04  3.1529017422481667e-04  3.1633590543095569e-04  3.1765574942887629e-04  3.1932122671335443e-04  3.2141100052475273e-04  3.2396859503659075e-04  3.2666081160719366e-04  3.0132003491682539e-04  3.0391335035337977e-04  3.0637454178774557e-04  3.0840818278995551e-04  3.1005344698556241e-04  3.1137744856049392e-04  3.1244070962429421e-04  3.1329817310134223e-04  3.1400184200833237e-04  3.1460214730971351e-04  3.1514873909935259e-04  3.1569123144105501e-04  3.1628005139783038e-04  3.1696735090507055e-04  3.1780794221632067e-04  3.1886042114518472e-04  3.2018904081496070e-04  3.2186697453019609e-04  3.2397704058684577e-04  3.2656865623488269e-04  3.2929163118849557e-04  3.0332378486936892e-04  3.0593014667095830e-04  3.0840818278995530e-04  3.1045338308346678e-04  3.1210565150414661e-04  3.1343396942979122e-04  3.1450009416093263e-04  3.1535966226260324e-04  3.1606508877902106e-04  3.1666708773462552e-04  3.1721553278298595e-04  3.1776023071062123e-04  3.1835178212595496e-04  3.1904250083095035e-04  3.1988736500125994e-04  3.2094518603264052e-04  3.2228059234627087e-04  3.2396746379814571e-04  3.2608953004836360e-04  3.2869510388486918e-04  3.3142295002447418e-04  3.0495561161582579e-04  3.0756698123909606e-04  3.1005344698556187e-04  3.1210565150414633e-04  3.1376287299425846e-04  3.1509458994136673e-04  3.1616311680838409e-04  3.1702450296196641e-04  3.1773145514499534e-04  3.1833490540580684e-04  3.1888490286045108e-04  3.1943140305395004e-04  3.2002513591008238e-04  3.2071852958192942e-04  3.2156666907627010e-04  3.2262848140951050e-04  3.2396874223767909e-04  3.2566149067188982e-04  3.2779036343085789e-04  3.3040234546865448e-04  3.3313179260699107e-04  3.0627222743915986e-04  3.0888628887208616e-04  3.1137744856049349e-04  3.1343396942979030e-04  3.1509458994136586e-04  3.1642885936966842e-04  3.1749931199155114e-04  3.1836221549586333e-04  3.1907046148491980e-04  3.1967513567974110e-04  3.2022641689285889e-04  3.2077437125174171e-04  3.2136982230857730e-04  3.2206527577001431e-04  3.2291587942415493e-04  3.2398061039345282e-04  3.2532427851799468e-04  3.2702090732861960e-04  3.2915394182042351e-04  3.3176968430529287e-04  3.3450061613043400e-04  3.0733058868791479e-04  3.0994652978886774e-04  3.1244070962429366e-04  3.1450009416093128e-04  3.1616311680838247e-04  3.1749931199155092e-04  3.1857129883862303e-04  3.1943545757284232e-04  3.2014479271607542e-04  3.2075049432694192e-04  3.2130283437237900e-04  3.2185195986809333e-04  3.2244876189641968e-04  3.2314579907678396e-04  3.2399825628975129e-04  3.2506513040875783e-04  3.2641122918966755e-04  3.2811053763288911e-04  3.3024638709555745e-04  3.3286478114719921e-04  3.3559715221575333e-04  3.0818428892101393e-04  3.1080176167790877e-04  3.1329817310134196e-04  3.1535966226260275e-04  3.1702450296196576e-04  3.1836221549586289e-04  3.1943545757284194e-04  3.2030067182319260e-04  3.2101093422668336e-04  3.2161750695131486e-04  3.2217072980164358e-04  3.2272081017566037e-04  3.2331868971614581e-04  3.2401696586727212e-04  3.2487084906469431e-04  3.2593934724306332e-04  3.2728726349706791e-04  3.2898856050684472e-04  3.3112652221991938e-04  3.3374701625437926e-04  3.3648073718152449e-04  3.0888460782380002e-04  3.1150352831357646e-04  3.1400184200833237e-04  3.1606508877902095e-04  3.1773145514499518e-04  3.1907046148491974e-04  3.2014479271607542e-04  3.2101093422668369e-04  3.2172201350374286e-04  3.2232934726753265e-04  3.2288332848999252e-04  3.2343421310338666e-04  3.2403298431232319e-04  3.2473227251375597e-04  3.2558731149527728e-04  3.2665712270755728e-04  3.2800651380530374e-04  3.2970944542634107e-04  3.3184919189536673e-04  3.3447154918091269e-04  3.3720663201770623e-04  3.0948142781576959e-04  3.1210194821161411e-04  3.1460214730971410e-04  3.1666708773462590e-04  3.1833490540580700e-04  3.1967513567974148e-04  3.2075049432694241e-04  3.2161750695131573e-04  3.2232934726753363e-04  3.2293738057324970e-04  3.2349204748575273e-04  3.2404364817149178e-04  3.2464320501883654e-04  3.2534338167766454e-04  3.2619943909207200e-04  3.2727042039929627e-04  3.2862115114483230e-04  3.3032560872225318e-04  3.3246708109182306e-04  3.3509132226160958e-04  3.3782796254188448e-04  3.1002390598072380e-04  3.1264641287578724e-04  3.1514873909935367e-04  3.1721553278298681e-04  3.1888490286045173e-04  3.2022641689285970e-04  3.2130283437237976e-04  3.2217072980164467e-04  3.2288332848999420e-04  3.2349204748575349e-04  3.2404737712944177e-04  3.2459966383923685e-04  3.2519997215135115e-04  3.2590100388294699e-04  3.2675805497514094e-04  3.2783020185010389e-04  3.2918230369610127e-04  3.3088837393807863e-04  3.3303173472424587e-04  3.3565811928901645e-04  3.3839672709969342e-04  3.1056118843894760e-04  3.1318630176792892e-04  3.1569123144105642e-04  3.1776023071062242e-04  3.1943140305395123e-04  3.2077437125174301e-04  3.2185195986809441e-04  3.2272081017566167e-04  3.2343421310338839e-04  3.2404364817149325e-04  3.2459966383923848e-04  3.2515265997685560e-04  3.2575375043556739e-04  3.2645568349961744e-04  3.2731380070068325e-04  3.2838722571792685e-04  3.2974086950305389e-04  3.3144880372777056e-04  3.3359440939938049e-04  3.3622342236901755e-04  3.3896462919358306e-04  3.1114325328122081e-04  3.1377182181989460e-04  3.1628005139783136e-04  3.1835178212595604e-04  3.2002513591008379e-04  3.2136982230857893e-04  3.2244876189642109e-04  3.2331868971614732e-04  3.2403298431232525e-04  3.2464320501883882e-04  3.2519997215135310e-04  3.2575375043556874e-04  3.2635571338863209e-04  3.2705866634501250e-04  3.2791800862133847e-04  3.2899292651436264e-04  3.3034840292637787e-04  3.3205859413040230e-04  3.3420697224956632e-04  3.3683930687917292e-04  3.3958395942892657e-04  3.1182182326371522e-04  3.1445491428093989e-04  3.1696735090507185e-04  3.1904250083095165e-04  3.2071852958193061e-04  3.2206527577001594e-04  3.2314579907678602e-04  3.2401696586727467e-04  3.2473227251375830e-04  3.2534338167766730e-04  3.2590100388294959e-04  3.2645568349961982e-04  3.2705866634501446e-04  3.2776282660074152e-04  3.2862363384750075e-04  3.2970035224022954e-04  3.3105805748761012e-04  3.3277102023929542e-04  3.3492284423807775e-04  3.3755937477573494e-04  3.4030851440004995e-04  3.1265129176882259e-04  3.1529017422481743e-04  3.1780794221632170e-04  3.1988736500126124e-04  3.2156666907627135e-04  3.2291587942415623e-04  3.2399825628975329e-04  3.2487084906469680e-04  3.2558731149527999e-04  3.2619943909207509e-04  3.2675805497514446e-04  3.2731380070068672e-04  3.2791800862134166e-04  3.2862363384750210e-04  3.2948622754247036e-04  3.3056514468665741e-04  3.3192557251171258e-04  3.3364192606495890e-04  3.3579798610037219e-04  3.3843972395929117e-04  3.4119453836955110e-04  3.1368976176023293e-04  3.1633590543095639e-04  3.1886042114518559e-04  3.2094518603264155e-04  3.2262848140951158e-04  3.2398061039345439e-04  3.2506513040875983e-04  3.2593934724306603e-04  3.2665712270756042e-04  3.2727042039929979e-04  3.2783020185010812e-04  3.2838722571793168e-04  3.2899292651436757e-04  3.2970035224023225e-04  3.3056514468665860e-04  3.3164675805691320e-04  3.3301050408171985e-04  3.3473096765410050e-04  3.3689214881483989e-04  3.3954018603217062e-04  3.4230190719548761e-04  3.1500050323919333e-04  3.1765574942887694e-04  3.2018904081496135e-04  3.2228059234627184e-04  3.2396874223768050e-04  3.2532427851799647e-04  3.2641122918966971e-04  3.2728726349707073e-04  3.2800651380530726e-04  3.2862115114483631e-04  3.2918230369610637e-04  3.2974086950305953e-04  3.3034840292638383e-04  3.3105805748761380e-04  3.3192557251171464e-04  3.3301050408172071e-04  3.3437829377728573e-04  3.3610371751308251e-04  3.3827103483482086e-04  3.4092654886436864e-04  3.4369629698490428e-04  3.1665352439992720e-04  3.1932122671335492e-04  3.2186697453019685e-04  3.2396746379814679e-04  3.2566149067189085e-04  3.2702090732862079e-04  3.2811053763289095e-04  3.2898856050684764e-04  3.2970944542634470e-04  3.3032560872225779e-04  3.3088837393808427e-04  3.3144880372777696e-04  3.3205859413040919e-04  3.3277102023930008e-04  3.3364192606496194e-04  3.3473096765410240e-04  3.3610371751308338e-04  3.3783518445392575e-04  3.4001001338037658e-04  3.4267472506852622e-04  3.4545373412623936e-04  3.1872049303663071e-04  3.2141100052475343e-04  3.2397704058684685e-04  3.2608953004836479e-04  3.2779036343085920e-04  3.2915394182042503e-04  3.3024638709555913e-04  3.3112652221992220e-04  3.3184919189537063e-04  3.3246708109182794e-04  3.3303173472425167e-04 