<?xml version="1.0"?>
<VTKFile type="UnstructuredGrid"  version="0.1"  >
<UnstructuredGrid>
<Piece  NumberOfPoints="9261" NumberOfCells="48000">
<Points>
<DataArray  type="Float64"  NumberOfComponents="3"  format="ascii">-2 -2 -2  -1.8 -2 -2  -1.6 -2 -2  -1.4 -2 -2  -1.2 -2 -2  -1 -2 -2  -0.8 -2 -2  -0.6000000000000001 -2 -2  -0.3999999999999999 -2 -2  -0.2 -2 -2  0 -2 -2  0.2000000000000002 -2 -2  0.3999999999999999 -2 -2  0.6000000000000001 -2 -2  0.7999999999999998 -2 -2  1 -2 -2  1.2 -2 -2  1.4 -2 -2  1.6 -2 -2  1.8 -2 -2  2 -2 -2  -2 -1.8 -2  -1.8 -1.8 -2  -1.6 -1.8 -2  -1.4 -1.8 -2  -1.2 -1.8 -2  -1 -1.8 -2  -0.8 -1.8 -2  -0.6000000000000001 -1.8 -2  -0.3999999999999999 -1.8 -2  -0.2 -1.8 -2  0 -1.8 -2  0.2000000000000002 -1.8 -2  0.3999999999999999 -1.8 -2  0.6000000000000001 -1.8 -2  0.7999999999999998 -1.8 -2  1 -1.8 -2  1.2 -1.8 -2  1.4 -1.8 -2  1.6 -1.8 -2  1.8 -1.8 -2  2 -1.8 -2  -2 -1.6 -2  -1.8 -1.6 -2  -1.6 -1.6 -2  -1.4 -1.6 -2  -1.2 -1.6 -2  -1 -1.6 -2  -0.8 -1.6 -2  -0.6000000000000001 -1.6 -2  -0.3999999999999999 -1.6 -2  -0.2 -1.6 -2  0 -1.6 -2  0.2000000000000002 -1.6 -2  0.3999999999999999 -1.6 -2  0.6000000000000001 -1.6 -2  0.7999999999999998 -1.6 -2  1 -1.6 -2  1.2 -1.6 -2  1.4 -1.6 -2  1.6 -1.6 -2  1.8 -1.6 -2  2 -1.6 -2  -2 -1.4 -2  -1.8 -1.4 -2  -1.6 -1.4 -2  -1.4 -1.4 -2  -1.2 -1.4 -2  -1 -1.4 -2  -0.8 -1.4 -2  -0.6000000000000001 -1.4 -2  -0.3999999999999999 -1.4 -2  -0.2 -1.4 -2  0 -1.4 -2  0.2000000000000002 -1.4 -2  0.3999999999999999 -1.4 -2  0.6000000000000001 -1.4 -2  0.7999999999999998 -1.4 -2  1 -1.4 -2  1.2 -1.4 -2  1.4 -1.4 -2  1.6 -1.4 -2  1.8 -1.4 -2  2 -1.4 -2  -2 -1.2 -2  -1.8 -1.2 -2  -1.6 -1.2 -2  -1.4 -1.2 -2  -1.2 -1.2 -2  -1 -1.2 -2  -0.8 -1.2 -2  -0.6000000000000001 -1.2 -2  -0.3999999999999999 -1.2 -2  -0.2 -1.2 -2  0 -1.2 -2  0.2000000000000002 -1.2 -2  0.3999999999999999 -1.2 -2  0.6000000000000001 -1.2 -2  0.7999999999999998 -1.2 -2  1 -1.2 -2  1.2 -1.2 -2  1.4 -1.2 -2  1.6 -1.2 -2  1.8 -1.2 -2  2 -1.2 -2  -2 -1 -2  -1.8 -1 -2  -1.6 -1 -2  -1.4 -1 -2  -1.2 -1 -2  -1 -1 -2  -0.8 -1 -2  -0.6000000000000001 -1 -2  -0.3999999999999999 -1 -2  -0.2 -1 -2  0 -1 -2  0.2000000000000002 -1 -2  0.3999999999999999 -1 -2  0.6000000000000001 -1 -2  0.7999999999999998 -1 -2  1 -1 -2  1.2 -1 -2  1.4 -1 -2  1.6 -1 -2  1.8 -1 -2  2 -1 -2  -2 -0.8 -2  -1.8 -0.8 -2  -1.6 -0.8 -2  -1.4 -0.8 -2  -1.2 -0.8 -2  -1 -0.8 -2  -0.8 -0.8 -2  -0.6000000000000001 -0.8 -2  -0.3999999999999999 -0.8 -2  -0.2 -0.8 -2  0 -0.8 -2  0.2000000000000002 -0.8 -2  0.3999999999999999 -0.8 -2  0.6000000000000001 -0.8 -2  0.7999999999999998 -0.8 -2  1 -0.8 -2  1.2 -0.8 -2  1.4 -0.8 -2  1.6 -0.8 -2  1.8 -0.8 -2  2 -0.8 -2  -2 -0.6000000000000001 -2  -1.8 -0.6000000000000001 -2  -1.6 -0.6000000000000001 -2  -1.4 -0.6000000000000001 -2  -1.2 -0.6000000000000001 -2  -1 -0.6000000000000001 -2  -0.8 -0.6000000000000001 -2  -0.6000000000000001 -0.6000000000000001 -2  -0.3999999999999999 -0.6000000000000001 -2  -0.2 -0.6000000000000001 -2  0 -0.6000000000000001 -2  0.2000000000000002 -0.6000000000000001 -2  0.3999999999999999 -0.6000000000000001 -2  0.6000000000000001 -0.6000000000000001 -2  0.7999999999999998 -0.6000000000000001 -2  1 -0.6000000000000001 -2  1.2 -0.6000000000000001 -2  1.4 -0.6000000000000001 -2  1.6 -0.6000000000000001 -2  1.8 -0.6000000000000001 -2  2 -0.6000000000000001 -2  -2 -0.3999999999999999 -2  -1.8 -0.3999999999999999 -2  -1.6 -0.3999999999999999 -2  -1.4 -0.3999999999999999 -2  -1.2 -0.3999999999999999 -2  -1 -0.3999999999999999 -2  -0.8 -0.3999999999999999 -2  -0.6000000000000001 -0.3999999999999999 -2  -0.3999999999999999 -0.3999999999999999 -2  -0.2 -0.3999999999999999 -2  0 -0.3999999999999999 -2  0.2000000000000002 -0.3999999999999999 -2  0.3999999999999999 -0.3999999999999999 -2  0.6000000000000001 -0.3999999999999999 -2  0.7999999999999998 -0.3999999999999999 -2  1 -0.3999999999999999 -2  1.2 -0.3999999999999999 -2  1.4 -0.3999999999999999 -2  1.6 -0.3999999999999999 -2  1.8 -0.3999999999999999 -2  2 -0.3999999999999999 -2  -2 -0.2 -2  -1.8 -0.2 -2  -1.6 -0.2 -2  -1.4 -0.2 -2  -1.2 -0.2 -2  -1 -0.2 -2  -0.8 -0.2 -2  -0.6000000000000001 -0.2 -2  -0.3999999999999999 -0.2 -2  -0.2 -0.2 -2  0 -0.2 -2  0.2000000000000002 -0.2 -2  0.3999999999999999 -0.2 -2  0.6000000000000001 -0.2 -2  0.7999999999999998 -0.2 -2  1 -0.2 -2  1.2 -0.2 -2  1.4 -0.2 -2  1.6 -0.2 -2  1.8 -0.2 -2  2 -0.2 -2  -2 0 -2  -1.8 0 -2  -1.6 0 -2  -1.4 0 -2  -1.2 0 -2  -1 0 -2  -0.8 0 -2  -0.6000000000000001 0 -2  -0.3999999999999999 0 -2  -0.2 0 -2  0 0 -2  0.2000000000000002 0 -2  0.3999999999999999 0 -2  0.6000000000000001 0 -2  0.7999999999999998 0 -2  1 0 -2  1.2 0 -2  1.4 0 -2  1.6 0 -2  1.8 0 -2  2 0 -2  -2 0.2000000000000002 -2  -1.8 0.2000000000000002 -2  -1.6 0.2000000000000002 -2  -1.4 0.2000000000000002 -2  -1.2 0.2000000000000002 -2  -1 0.2000000000000002 -2  -0.8 0.2000000000000002 -2  -0.6000000000000001 0.2000000000000002 -2  -0.3999999999999999 0.2000000000000002 -2  -0.2 0.2000000000000002 -2  0 0.2000000000000002 -2  0.2000000000000002 0.2000000000000002 -2  0.3999999999999999 0.2000000000000002 -2  0.6000000000000001 0.2000000000000002 -2  0.7999999999999998 0.2000000000000002 -2  1 0.2000000000000002 -2  1.2 0.2000000000000002 -2  1.4 0.2000000000000002 -2  1.6 0.2000000000000002 -2  1.8 0.2000000000000002 -2  2 0.2000000000000002 -2  -2 0.3999999999999999 -2  -1.8 0.3999999999999999 -2  -1.6 0.3999999999999999 -2  -1.4 0.3999999999999999 -2  -1.2 0.3999999999999999 -2  -1 0.3999999999999999 -2  -0.8 0.3999999999999999 -2  -0.6000000000000001 0.3999999999999999 -2  -0.3999999999999999 0.3999999999999999 -2  -0.2 0.3999999999999999 -2  0 0.3999999999999999 -2  0.2000000000000002 0.3999999999999999 -2  0.3999999999999999 0.3999999999999999 -2  0.6000000000000001 0.3999999999999999 -2  0.7999999999999998 0.3999999999999999 -2  1 0.3999999999999999 -2  1.2 0.3999999999999999 -2  1.4 0.3999999999999999 -2  1.6 0.3999999999999999 -2  1.8 0.3999999999999999 -2  2 0.3999999999999999 -2  -2 0.6000000000000001 -2  -1.8 0.6000000000000001 -2  -1.6 0.6000000000000001 -2  -1.4 0.6000000000000001 -2  -1.2 0.6000000000000001 -2  -1 0.6000000000000001 -2  -0.8 0.6000000000000001 -2  -0.6000000000000001 0.6000000000000001 -2  -0.3999999999999999 0.6000000000000001 -2  -0.2 0.6000000000000001 -2  0 0.6000000000000001 -2  0.2000000000000002 0.6000000000000001 -2  0.3999999999999999 0.6000000000000001 -2  0.6000000000000001 0.6000000000000001 -2  0.7999999999999998 0.6000000000000001 -2  1 0.6000000000000001 -2  1.2 0.6000000000000001 -2  1.4 0.6000000000000001 -2  1.6 0.6000000000000001 -2  1.8 0.6000000000000001 -2  2 0.6000000000000001 -2  -2 0.7999999999999998 -2  -1.8 0.7999999999999998 -2  -1.6 0.7999999999999998 -2  -1.4 0.7999999999999998 -2  -1.2 0.7999999999999998 -2  -1 0.7999999999999998 -2  -0.8 0.7999999999999998 -2  -0.6000000000000001 0.7999999999999998 -2  -0.3999999999999999 0.7999999999999998 -2  -0.2 0.7999999999999998 -2  0 0.7999999999999998 -2  0.2000000000000002 0.7999999999999998 -2  0.3999999999999999 0.7999999999999998 -2  0.6000000000000001 0.7999999999999998 -2  0.7999999999999998 0.7999999999999998 -2  1 0.7999999999999998 -2  1.2 0.7999999999999998 -2  1.4 0.7999999999999998 -2  1.6 0.7999999999999998 -2  1.8 0.7999999999999998 -2  2 0.7999999999999998 -2  -2 1 -2  -1.8 1 -2  -1.6 1 -2  -1.4 1 -2  -1.2 1 -2  -1 1 -2  -0.8 1 -2  -0.6000000000000001 1 -2  -0.3999999999999999 1 -2  -0.2 1 -2  0 1 -2  0.2000000000000002 1 -2  0.3999999999999999 1 -2  0.6000000000000001 1 -2  0.7999999999999998 1 -2  1 1 -2  1.2 1 -2  1.4 1 -2  1.6 1 -2  1.8 1 -2  2 1 -2  -2 1.2 -2  -1.8 1.2 -2  -1.6 1.2 -2  -1.4 1.2 -2  -1.2 1.2 -2  -1 1.2 -2  -0.8 1.2 -2  -0.6000000000000001 1.2 -2  -0.3999999999999999 1.2 -2  -0.2 1.2 -2  0 1.2 -2  0.2000000000000002 1.2 -2  0.3999999999999999 1.2 -2  0.6000000000000001 1.2 -2  0.7999999999999998 1.2 -2  1 1.2 -2  1.2 1.2 -2  1.4 1.2 -2  1.6 1.2 -2  1.8 1.2 -2  2 1.2 -2  -2 1.4 -2  -1.8 1.4 -2  -1.6 1.4 -2  -1.4 1.4 -2  -1.2 1.4 -2  -1 1.4 -2  -0.8 1.4 -2  -0.6000000000000001 1.4 -2  -0.3999999999999999 1.4 -2  -0.2 1.4 -2  0 1.4 -2  0.2000000000000002 1.4 -2  0.3999999999999999 1.4 -2  0.6000000000000001 1.4 -2  0.7999999999999998 1.4 -2  1 1.4 -2  1.2 1.4 -2  1.4 1.4 -2  1.6 1.4 -2  1.8 1.4 -2  2 1.4 -2  -2 1.6 -2  -1.8 1.6 -2  -1.6 1.6 -2  -1.4 1.6 -2  -1.2 1.6 -2  -1 1.6 -2  -0.8 1.6 -2  -0.6000000000000001 1.6 -2  -0.3999999999999999 1.6 -2  -0.2 1.6 -2  0 1.6 -2  0.2000000000000002 1.6 -2  0.3999999999999999 1.6 -2  0.6000000000000001 1.6 -2  0.7999999999999998 1.6 -2  1 1.6 -2  1.2 1.6 -2  1.4 1.6 -2  1.6 1.6 -2  1.8 1.6 -2  2 1.6 -2  -2 1.8 -2  -1.8 1.8 -2  -1.6 1.8 -2  -1.4 1.8 -2  -1.2 1.8 -2  -1 1.8 -2  -0.8 1.8 -2  -0.6000000000000001 1.8 -2  -0.3999999999999999 1.8 -2  -0.2 1.8 -2  0 1.8 -2  0.2000000000000002 1.8 -2  0.3999999999999999 1.8 -2  0.6000000000000001 1.8 -2  0.7999999999999998 1.8 -2  1 1.8 -2  1.2 1.8 -2  1.4 1.8 -2  1.6 1.8 -2  1.8 1.8 -2  2 1.8 -2  -2 2 -2  -1.8 2 -2  -1.6 2 -2  -1.4 2 -2  -1.2 2 -2  -1 2 -2  -0.8 2 -2  -0.6000000000000001 2 -2  -0.3999999999999999 2 -2  -0.2 2 -2  0 2 -2  0.2000000000000002 2 -2  0.3999999999999999 2 -2  0.6000000000000001 2 -2  0.7999999999999998 2 -2  1 2 -2  1.2 2 -2  1.4 2 -2  1.6 2 -2  1.8 2 -2  2 2 -2  -2 -2 -1.8  -1.8 -2 -1.8  -1.6 -2 -1.8  -1.4 -2 -1.8  -1.2 -2 -1.8  -1 -2 -1.8  -0.8 -2 -1.8  -0.6000000000000001 -2 -1.8  -0.3999999999999999 -2 -1.8  -0.2 -2 -1.8  0 -2 -1.8  0.2000000000000002 -2 -1.8  0.3999999999999999 -2 -1.8  0.6000000000000001 -2 -1.8  0.7999999999999998 -2 -1.8  1 -2 -1.8  1.2 -2 -1.8  1.4 -2 -1.8  1.6 -2 -1.8  1.8 -2 -1.8  2 -2 -1.8  -2 -1.8 -1.8  -1.8 -1.8 -1.8  -1.6 -1.8 -1.8  -1.4 -1.8 -1.8  -1.2 -1.8 -1.8  -1 -1.8 -1.8  -0.8 -1.8 -1.8  -0.6000000000000001 -1.8 -1.8  -0.3999999999999999 -1.8 -1.8  -0.2 -1.8 -1.8  0 -1.8 -1.8  0.2000000000000002 -1.8 -1.8  0.3999999999999999 -1.8 -1.8  0.6000000000000001 -1.8 -1.8  0.7999999999999998 -1.8 -1.8  1 -1.8 -1.8  1.2 -1.8 -1.
[...]
<PointData  Scalars="uA"> 
<DataArray  type="Float64"  Name="uA"  format="ascii">2.3595275192002212e-06  2.9860178549221678e-06  3.5023814429263774e-06  3.9139962976539049e-06  4.2310534291237688e-06  4.4656360964265952e-06  4.6317314796781841e-06  4.7437661424916150e-06  4.8150843172120187e-06  4.8571076655026825e-06  4.8793933852759772e-06  4.8905512445871090e-06  4.8998162542940551e-06  4.9189391669331173e-06  4.9639590168107628e-06  5.0564143313015208e-06  5.2237311453121311e-06  5.4990942782058478e-06  5.9225428241942771e-06  6.5478821481695053e-06  7.4561010508294425e-06  2.9860178549221674e-06  3.7985754935390165e-06  4.3670897601271890e-06  4.8059042319189357e-06  5.1414436389506460e-06  5.3890017754313199e-06  5.5639567400514138e-06  5.6818272793960090e-06  5.7569322581248203e-06  5.8015814795310540e-06  5.8261733275117779e-06  5.8401664456834029e-06  5.8537055015985608e-06  5.8795448411865384e-06  5.9348205598935800e-06  6.0422248466445794e-06  6.2303577552997081e-06  6.5338463138792996e-06  6.9969753778832284e-06  7.6995404987665850e-06  8.9056552533656797e-06  3.5023814429263766e-06  4.3670897601271890e-06  4.9591204038097407e-06  5.4115427498609816e-06  5.7562482270675235e-06  6.0101622436325168e-06  6.1894333221319507e-06  6.3101601213316700e-06  6.3871821872598353e-06  6.4333033847221586e-06  6.4594120620599516e-06  6.4754736836328382e-06  6.4921681031547736e-06  6.5228066877866935e-06  6.5850760123295327e-06  6.7021685775300434e-06  6.9031131780008650e-06  7.2230504861592004e-06  7.7077667181098363e-06  8.4424718068182369e-06  9.6993935099895216e-06  3.9139962976539041e-06  4.8059042319189357e-06  5.4115427498609808e-06  5.8723864992074148e-06  6.2228848075316587e-06  6.4808485757110219e-06  6.6628912130723396e-06  6.7854767639212273e-06  6.8637836279758720e-06  6.9109478184342194e-06  6.9381950937341300e-06  6.9558417961789746e-06  6.9749309677781100e-06  7.0091334879807731e-06  7.0764598301561456e-06  7.2003499306404018e-06  7.4099784238897653e-06  7.7405908199338334e-06  8.2383592699946218e-06  8.9900707328721117e-06  1.0272728612748397e-05  4.2310534291237672e-06  5.1414436389506426e-06  5.7562482270675218e-06  6.2228848075316587e-06  6.5774253073003574e-06  6.8382437978451699e-06  7.0222598219034457e-06  7.1461852042887023e-06  7.2254338034503312e-06  7.2733767152518305e-06  7.3014804929359209e-06  7.3203107145471364e-06  7.3411634763386041e-06  7.3779509254026491e-06  7.4488865106478967e-06  7.5775440144115069e-06  7.7931457725290860e-06  8.1309395627449956e-06  8.6372687629415477e-06  9.4000442094226639e-06  1.0701616057314621e-05  4.4656360964265943e-06  5.3890017754313183e-06  6.0101622436325134e-06  6.4808485757110193e-06  6.8382437978451673e-06  7.1010967727405849e-06  7.2865317614954778e-06  7.4114294993387194e-06  7.4913672069439121e-06  7.5398807802863536e-06  7.5686057894698225e-06  7.5882814139841321e-06  7.6103772120806375e-06  7.6489665303839146e-06  7.7223928773916065e-06  7.8543089006628118e-06  8.0739569219663223e-06  8.4165812389291256e-06  8.9286631995203694e-06  9.6990182106673506e-06  1.1014300596103539e-05  4.6317314796781833e-06  5.5639567400514130e-06  6.1894333221319490e-06  6.6628912130723362e-06  7.0222598219034415e-06  7.2865317614954736e-06  7.4729643154760474e-06  7.5985502508403432e-06  7.6789769617385554e-06  7.7278922891166504e-06  7.7570464680496827e-06  7.7772955967803873e-06  7.8002247804706140e-06  7.8400133226243481e-06  7.9150890034774173e-06  8.0491552389965271e-06  8.2714693594961130e-06  8.6172824594657229e-06  9.1331906589191627e-06  9.9086705367842284e-06  1.1233423276055716e-05  4.7437661424916158e-06  5.6818272793960090e-06  6.3101601213316691e-06  6.7854767639212264e-06  7.1461852042887014e-06  7.4114294993387169e-06  7.5985502508403381e-06  7.7246124858510479e-06  7.8053758683638032e-06  7.8545619509847448e-06  7.8839962167043435e-06  7.9046110934106450e-06  7.9280669261331714e-06  7.9686123321119198e-06  8.0447314716645377e-06  8.1801647290673784e-06  8.4041868027410150e-06  8.7520650027287028e-06  9.2704850475277058e-06  1.0049371660192659e-05  1.1380447445494819e-05  4.8150843172120196e-06  5.7569322581248211e-06  6.3871821872598361e-06  6.8637836279758728e-06  7.2254338034503295e-06  7.4913672069439113e-06  7.6789769617385554e-06  7.8053758683638066e-06  7.8863718451049514e-06  7.9357352643388133e-06  7.9653409332923034e-06  7.9861712180634049e-06  8.0099363889218298e-06  8.0509328489238927e-06  8.1276869356883471e-06  8.2639722946570473e-06  8.4890880603377248e-06  8.8383276925359370e-06  9.3584485888289222e-06  1.0139668322572711e-05  1.1474995339238451e-05  4.8571076655026834e-06  5.8015814795310557e-06  6.4333033847221594e-06  6.9109478184342185e-06  7.2733767152518289e-06  7.5398807802863528e-06  7.7278922891166504e-06  7.8545619509847465e-06  7.9357352643388150e-06  7.9852191958896401e-06  8.0149245020756530e-06  8.0358699841336668e-06  8.0598038300136788e-06  8.1010619013013311e-06  8.1782104624769498e-06  8.3150620003044732e-06  8.5409529993578133e-06  8.8912173314361508e-06  9.4126790449341032e-06  1.0195752794497745e-05  1.1534258508651900e-05  4.8793933852759789e-06  5.8261733275117796e-06  6.4594120620599524e-06  6.9381950937341275e-06  7.3014804929359192e-06  7.5686057894698208e-06  7.7570464680496793e-06  7.8839962167043435e-06  7.9653409332923034e-06  8.0149245020756547e-06  8.0446923957459166e-06  8.0656985525455235e-06  8.0897294877300778e-06  8.1311644836154493e-06  8.2086188516983900e-06  8.3459590401420253e-06  8.5725792040105306e-06  8.9238749894943344e-06  9.4467471145467430e-06  1.0231766188835910e-05  1.1573316533042642e-05  4.8905512445871065e-06  5.8401664456834012e-06  6.4754736836328365e-06  6.9558417961789712e-06  7.3203107145471322e-06  7.5882814139841270e-06  7.7772955967803822e-06  7.9046110934106450e-06  7.9861712180634032e-06  8.0358699841336668e-06  8.0656985525455235e-06  8.0867567440498123e-06  8.1108818941592112e-06  8.1525125563082257e-06  8.2303333130916395e-06  8.3682893963380907e-06  8.5958612272714641e-06  8.9485362374079455e-06  9.4733181974052064e-06  1.0260945152569247e-05  1.1606330507824026e-05  4.8998162542940483e-06  5.8537055015985557e-06  6.4921681031547702e-06  6.9749309677781066e-06  7.3411634763385982e-06  7.6103772120806298e-06  7.8002247804706089e-06  7.9280669261331697e-06  8.0099363889218281e-06  8.0598038300136771e-06  8.0897294877300761e-06  8.1108818941592146e-06  8.1351736146658440e-06  8.1771298096576178e-06  8.2555350616975393e-06  8.3944472792312660e-06  8.6234696890614634e-06  8.9782206667798108e-06  9.5058518732424650e-06  1.0297337815082931e-05  1.1648309152517189e-05  4.9189391669331123e-06  5.8795448411865333e-06  6.5228066877866902e-06  7.0091334879807671e-06  7.3779509254026406e-06  7.6489665303839061e-06  7.8400133226243414e-06  7.9686123321119164e-06  8.0509328489238876e-06  8.1010619013013277e-06  8.1311644836154476e-06  8.1525125563082290e-06  8.1771298096576212e-06  8.2196659694592383e-06  8.2990454203342922e-06  8.4394797543875060e-06  8.6707374569228070e-06  9.0286153228641800e-06  9.5604793552835485e-06  1.0357680227017472e-05  1.1717017835758945e-05  4.9639590168107577e-06  5.9348205598935749e-06  6.5850760123295277e-06  7.0764598301561371e-06  7.4488865106478899e-06  7.7223928773915997e-06  7.9150890034774105e-06  8.0447314716645344e-06  8.1276869356883437e-06  8.1782104624769481e-06  8.2086188516983900e-06  8.2303333130916446e-06  8.2555350616975443e-06  8.2990454203342939e-06  8.3799749816187169e-06  8.5227335597835860e-06  8.7572989301430047e-06  9.1196988448425705e-06  9.6576045062441857e-06  1.0462972933694877e-05  1.1834553363140893e-05  5.0564143313015158e-06  6.0422248466445735e-06  6.7021685775300383e-06  7.2003499306403958e-06  7.5775440144115001e-06  7.8543089006628050e-06  8.0491552389965203e-06  8.1801647290673716e-06  8.2639722946570423e-06  8.3150620003044698e-06  8.3459590401420236e-06  8.3682893963380941e-06  8.3944472792312710e-06  8.4394797543875077e-06  8.5227335597835860e-06  8.6688599318727198e-06  8.9080845019974337e-06  9.2767157741261718e-06  9.8228433332766560e-06  1.0639370948674175e-05  1.2028179924830174e-05  5.2237311453121251e-06  6.2303577552997013e-06  6.9031131780008582e-06  7.4099784238897594e-06  7.7931457725290775e-06  8.0739569219663105e-06  8.2714693594961045e-06  8.4041868027410083e-06  8.4890880603377180e-06  8.5409529993578065e-06  8.5725792040105272e-06  8.5958612272714624e-06  8.6234696890614651e-06  8.6707374569228070e-06  8.7572989301430047e-06  8.9080845019974337e-06  9.1535921547393666e-06  9.5304434411525860e-06  1.0087265455335775e-05  1.0918359589170018e-05  1.2330361712936232e-05  5.4990942782058419e-06  6.5338463138792937e-06  7.2230504861591919e-06  7.7405908199338249e-06  8.1309395627449872e-06  8.4165812389291138e-06  8.6172824594657128e-06  8.7520650027286926e-06  8.8383276925359269e-06  8.8912173314361423e-06  8.9238749894943310e-06  8.9485362374079455e-06  8.9782206667798142e-06  9.0286153228641800e-06  9.1196988448425705e-06  9.2767157741261701e-06  9.5304434411525877e-06  9.9178121324887496e-06  1.0488069888393201e-05  1.1337419413538313e-05  1.2779131854195206e-05  5.9225428241942704e-06  6.9969753778832208e-06  7.7077667181098296e-06  8.2383592699946133e-06  8.6372687629415375e-06  8.9286631995203575e-06  9.1331906589191509e-06  9.2704850475276957e-06  9.3584485888289138e-06  9.4126790449340964e-06  9.4467471145467396e-06  9.4733181974052081e-06  9.5058518732424701e-06  9.5604793552835485e-06  9.6576045062441857e-06  9.8228433332766543e-06  1.0087265455335773e-05  1.0488069888393201e-05  1.1075127708825524e-05  1.1947036974471952e-05  1.3425210230366458e-05  6.5478821481694977e-06  7.6995404987665782e-06  8.4424718068182301e-06  8.9900707328721050e-06  9.4000442094226537e-06  9.6990182106673387e-06  9.9086705367842182e-06  1.0049371660192649e-05  1.0139668322572702e-05  1.0195752794497738e-05  1.0231766188835909e-05  1.0260945152569248e-05  1.0297337815082934e-05  1.0357680227017477e-05  1.0462972933694878e-05  1.0639370948674175e-05  1.0918359589170019e-05  1.1337419413538315e-05  1.1947036974471952e-05  1.2849635540396308e-05  1.4381812048145547e-05  7.4561010508294357e-06  8.9056552533656729e-06  9.6993935099895148e-06  1.0272728612748387e-05  1.0701616057314613e-05  1.1014300596103525e-05  1.1233423276055703e-05  1.1380447445494807e-05  1.1474995339238441e-05  1.1534258508651895e-05  1.1573316533042642e-05  1.1606330507824029e-05  1.1648309152517192e-05  1.1717017835758949e-05  1.1834553363140898e-05  1.2028179924830176e-05  1.2330361712936234e-05  1.2779131854195208e-05  1.3425210230366460e-05  1.4381812048145549e-05  1.6149375687081790e-05  5.7314373525907198e-06  6.5621373436140115e-06  7.2784901196616184e-06  7.8563728216841174e-06  8.3011903066773541e-06  8.6291130308488474e-06  8.8604908568113330e-06  9.0162578233835378e-06  9.1156885568220855e-06  9.1753912123129543e-06  9.2095297574029547e-06  9.2311259288962579e-06  9.2541215347165946e-06  9.2957285433196818e-06  9.3784921823678841e-06  9.5314929554426544e-06  9.7902579646351295e-06  1.0195162253672230e-05  1.0787715480997028e-05  1.1599663813957971e-05  1.2605756055673124e-05  6.5621373436140124e-06  7.4062271158274637e-06  8.1365385444159575e-06  8.7241871347325585e-06  9.1758150750139176e-06  9.5083838260440896e-06  9.7428191366327617e-06  9.9005712927768607e-06  1.0001409298825990e-05  1.0062433553378970e-05  1.0098317391027449e-05  1.0122621496212581e-05  1.0149852934597819e-05  1.0197791343163203e-05  1.0289508579756926e-05  1.0454513850677512e-05  1.0728605844267254e-05  1.1152247319012217e-05  1.1766983501116128e-05  1.2604630317560434e-05  1.3628827592012245e-05  7.2784901196616209e-06  8.1365385444159592e-06  8.8784585243478583e-06  9.4751448944792594e-06  9.9334231115831315e-06  1.0270687253857861e-05  1.0508319599061331e-05  1.0668217669275081e-05  1.0770588508737116e-05  1.0832970231669058e-05  1.0870485585604645e-05  1.0897163625262600e-05  1.0927992751447447e-05  1.0981222065414695e-05  1.1080336659737191e-05  1.1255143622674527e-05  1.1541562014081844e-05  1.1979954743937568e-05  1.2611509745044755e-05  1.3466796681015013e-05  1.4502000306068982e-05  7.8563728216841174e-06  8.7241871347325551e-06  9.4751448944792594e-06  1.0078911423496536e-05  1.0542473198052470e-05  1.0883530101557891e-05  1.1123790191689525e-05  1.1285483219650091e-05  1.1389151561998648e-05  1.1452673757682766e-05  1.1491522983642946e-05  1.1520090193380384e-05  1.1553728023270923e-05  1.1611027656941735e-05  1.1715753950800879e-05  1.1897880781734673e-05  1.2193331574922904e-05  1.2642279399764501e-05  1.3285496395651555e-05  1.4152580242338387e-05  1.5196009229800656e-05  8.3011903066773490e-06  9.1758150750139126e-06  9.9334231115831264e-06  1.0542473198052468e-05  1.1010019700546263e-05  1.1353970037012551e-05  1.1596259238650578e-05  1.1759354619287852e-05  1.1864043824783605e-05  1.1928457467429794e-05  1.1968328426632268e-05  1.1998313350829834e-05  1.2034027171937813e-05  1.2094299376881409e-05  1.2203077816122561e-05  1.2390427689089486e-05  1.2692242321725096e-05  1.3148535679651119e-05  1.3799801756946901e-05  1.4675104051830688e-05  1.5724823447999895e-05  8.6291130308488457e-06  9.5083838260440862e-06  1.0270687253857854e-05  1.0883530101557889e-05  1.1353970037012549e-05  1.1700043044109668e-05  1.1943835479017880e-05  1.2107978545721303e-05  1.2213432721803447e-05  1.2278508004518553e-05  1.2319122001068502e-05  1.2350118703362654e-05  1.2387295116875011e-05  1.2449642238826056e-05  1.2561227096450512e-05  1.2752168660438425e-05  1.3058333859011445e-05  1.3519635005288847e-05  1.4176408690451122e-05  1.5057417576321609e-05  1.6111620115539541e-05  8.8604908568113330e-06  9.7428191366327600e-06  1.0508319599061329e-05  1.1123790191689522e-05  1.1596259238650571e-05  1.1943835479017880e-05  1.2188701371675130e-05  1.2353596961486647e-05  1.2459600043855373e-05  1.2525143420158609e-05  1.2566271050065372e-05  1.2597954194957953e-05  1.2636112313013432e-05  1.2699843787528599e-05  1.2813294117839449e-05  1.3006618314450712e-05  1.3315670323800265e-05  1.3780307187364772e-05  1.4440780251668032e-05  1.5325661696810541e-05  1.6382883525234602e-05  9.0162578233835411e-06  9.9005712927768624e-06  1.0668217669275081e-05  1.1285483219650088e-05  1.1759354619287850e-05  1.2107978545721298e-05  1.2353596961486638e-05  1.2519020833962221e-05  1.2625405822250765e-05  1.2691266561265170e-05  1.2732730984416702e-05  1.2764854598005946e-05  1.2803637858811647e-05  1.2868250790217730e-05  1.2982893089374756e-05  1.3177749011650755e-05  1.3488673770820969e-05  1.3955501958616177e-05  1.4618442149582400e-05  1.5505938744296949e-05  1.6565188584941095e-05  9.1156885568220872e-06  1.0001409298825990e-05  1.0770588508737118e-05  1.1389151561998649e-05  1.1864043824783604e-05  1.2213432721803446e-05  1.2459600043855372e-05  1.2625405822250769e-05  1.2732059432565560e-05  1.2798131262827278e-05  1.2839805846418537e-05  1.2872195434475177e-05  1.2911355960007420e-05  1.2976508754876256e-05  1.3091896506796922e-05  1.3287734141462091e-05  1.3599893382795757e-05  1.4068212251859627e-05  1.4732886583535806e-05  1.5622278135867138e-05  1.6683067477032052e-05  9.1753912123129543e-06  1.0062433553378968e-05  1.0832970231669060e-05  1.1452673757682766e-05  1.1928457467429792e-05  1.2278508004518549e-05  1.2525143420158607e-05  1.2691266561265171e-05  1.2798131262827281e-05  1.2864351903552833e-05  1.2906156376703515e-05  1.2938700450946057e-05  1.2978084345188975e-05  1.3043574056470569e-05  1.3159455788852723e-05  1.3355984761288341e-05  1.3669067992565838e-05  1.4138572042489274e-05  1.4804706933451887e-05  1.5695788381049840e-05  1.6758131797865086e-05  9.2095297574029547e-06  1.0098317391027447e-05  1.0870485585604645e-05  1.1491522983642945e-05  1.1968328426632264e-05  1.2319122001068499e-05  1.2566271050065367e-05  1.2732730984416700e-05  1.2839805846418537e-05  1.2906156376703515e-05  1.2948054237407807e-05  1.2980698998048283e-05  1.3020237359444136e-05  1.3085986128232113e-05  1.3202286844819624e-05  1.3399453459457429e-05  1.3713452874499070e-05  1.4184208517686252e-05  1.4851972955882554e-05  1.5745046459575379e-05  1.6809464008305568e-05  9.2311259288962545e-06  1.0122621496212578e-05  1.0897163625262603e-05  1.1520090193380381e-05  1.1998313350829827e-05  1.2350118703362649e-05  1.2597954194957946e-05  1.2764854598005943e-05  1.2872195434475176e-05  1.2938700450946055e-05  1.2980698998048287e-05  1.3013447877045530e-05  1.3053155321024124e-05  1.3119207300373181e-05  1.3236023421004121e-05  1.3434003777005378e-05  1.3749206604990205e-05  1.4221645794868965e-05  1.4891648730053558e-05  1.5787526561761594e-05  1.6855053587946418e-05  9.2541215347165861e-06  1.0149852934597812e-05  1.0927992751447442e-05  1.1553728023270920e-05  1.2034027171937804e-05  1.2387295116875001e-05  1.2636112313013426e-05  1.2803637858811644e-05  1.2911355960007415e-05  1.2978084345188972e-05  1.3020237359444136e-05  1.3053155321024128e-05  1.3093135384669882e-05  1.3159662472985757e-05  1.3277266910705096e-05  1.3476470329146482e-05  1.3793460002695311e-05  1.4268379488008608e-05  1.4941669036818401e-05  1.5841676073017715e-05  1.6913871417083009e-05  9.2957285433196750e-06  1.0197791343163194e-05  1.0981222065414690e-05  1.1611027656941729e-05  1.2094299376881402e-05  1.2449642238826045e-05  1.2699843787528589e-05  1.2868250790217723e-05  1.2976508754876251e-05  1.3043574056470562e-05  1.3085986128232109e-05  1.3119207300373184e-05  1.3159662472985762e-05  1.3226975343911071e-05  1.3345827476951173e-05  1.3546902744213579e-05  1.3866558614030755e-05  1.4345111444119646e-05  1.5023159736162169e-05  1.5929118081583807e-05  1.7008054679971756e-05  9.3784921823678773e-06  1.0289508579756917e-05  1.1080336659737183e-05  1.1715753950800869e-05  1.2203077816122551e-05  1.2561227096450503e-05  1.2813294117839441e-05  1.2982893089374752e-05  1.3091896506796917e-05  1.3159455788852717e-05  1.3202286844819620e-05  1.3236023421004124e-05  1.3277266910705103e-05  1.3345827476951175e-05  1.3466583048766168e-05  1.3670421121655467e-05  1.3993908274961882e-05  1.4477575756007321e-05  1.5162232985251446e-05  1.6076408344921895e-05  1.7164627831184119e-05  9.5314929554426477e-06  1.0454513850677503e-05  1.1255143622674519e-05  1.1897880781734663e-05  1.2390427689089473e-05  1.2752168660438415e-05  1.3006618314450700e-05  1.3177749011650750e-05  1.3287734141462084e-05  1.3355984761288336e-05  1.3399453459457426e-05  1.3434003777005380e-05  1.3476470329146488e-05  1.3546902744213582e-05  1.3670421121655467e-05  1.3878152416699092e-05  1.4206899823620132e-05  1.4697439663542654e-05  1.5390846063960126e-05  1.6315835073183270e-05  1.7416245268632519e-05  9.7902579646351194e-06  1.0728605844267247e-05  1.1541562014081835e-05  1.2193331574922892e-05  1.2692242321725086e-05  1.3058333859011428e-05  1.3315670323800250e-05  1.3488673770820959e-05  1.3599893382795747e-05  1.3669067992565824e-05  1.3713452874499065e-05  1.3749206604990205e-05  1.3793460002695318e-05  1.3866558614030757e-05  1.3993908274961881e-05  1.4206899823620130e-05  1.4542577327362126e-05  1.5041960409022269e-05  1.5746420179657450e-05  1.6684961445228940e-05  1.7800643821980258e-05  1.0195162253672222e-05  1.1152247319012208e-05  1.1979954743937557e-05  1.2642279399764487e-05  1.3148535679651106e-05  1.3519635005288827e-05  1.3780307187364753e-05  1.3955501958616162e-05  1.4068212251859612e-05  1.4138572042489264e-05  1.4184208517686250e-05  1.4221645794868968e-05  1.4268379488008617e-05  1.4345111444119650e-05  1.4477575756007321e-05  1.4697439663542654e-05  1.5041960409022269e-05  1.5552339084570545e-05  1.6270201518982096e-05  1.7224925600047562e-05  1.8358810871811949e-05  1.0787715480997018e-05  1.1766983501116119e-05  1.2611509745044745e-05  1.3285496395651542e-05  1.3799801756946888e-05  1.4176408690451105e-05  1.4440780251668015e-05  1.4618442149582387e-05  1.4732886583535793e-05  1.4804706933451879e-05  1.4851972955882552e-05 