<?xml version="1.0"?>
<VTKFile type="UnstructuredGrid"  version="0.1"  >
<UnstructuredGrid>
<Piece  NumberOfPoints="9261" NumberOfCells="48000">
<Points>
<DataArray  type="Float64"  NumberOfComponents="3"  format="ascii">-2 -2 -2  -1.8 -2 -2  -1.6 -2 -2  -1.4 -2 -2  -1.2 -2 -2  -1 -2 -2  -0.8 -2 -2  -0.6000000000000001 -2 -2  -0.3999999999999999 -2 -2  -0.2 -2 -2  0 -2 -2  0.2000000000000002 -2 -2  0.3999999999999999 -2 -2  0.6000000000000001 -2 -2  0.7999999999999998 -2 -2  1 -2 -2  1.2 -2 -2  1.4 -2 -2  1.6 -2 -2  1.8 -2 -2  2 -2 -2  -2 -1.8 -2  -1.8 -1.8 -2  -1.6 -1.8 -2  -1.4 -1.8 -2  -1.2 -1.8 -2  -1 -1.8 -2  -0.8 -1.8 -2  -0.6000000000000001 -1.8 -2  -0.3999999999999999 -1.8 -2  -0.2 -1.8 -2  0 -1.8 -2  0.2000000000000002 -1.8 -2  0.3999999999999999 -1.8 -2  0.6000000000000001 -1.8 -2  0.7999999999999998 -1.8 -2  1 -1.8 -2  1.2 -1.8 -2  1.4 -1.8 -2  1.6 -1.8 -2  1.8 -1.8 -2  2 -1.8 -2  -2 -1.6 -2  -1.8 -1.6 -2  -1.6 -1.6 -2  -1.4 -1.6 -2  -1.2 -1.6 -2  -1 -1.6 -2  -0.8 -1.6 -2  -0.6000000000000001 -1.6 -2  -0.3999999999999999 -1.6 -2  -0.2 -1.6 -2  0 -1.6 -2  0.2000000000000002 -1.6 -2  0.3999999999999999 -1.6 -2  0.6000000000000001 -1.6 -2  0.7999999999999998 -1.6 -2  1 -1.6 -2  1.2 -1.6 -2  1.4 -1.6 -2  1.6 -1.6 -2  1.8 -1.6 -2  2 -1.6 -2  -2 -1.4 -2  -1.8 -1.4 -2  -1.6 -1.4 -2  -1.4 -1.4 -2  -1.2 -1.4 -2  -1 -1.4 -2  -0.8 -1.4 -2  -0.6000000000000001 -1.4 -2  -0.3999999999999999 -1.4 -2  -0.2 -1.4 -2  0 -1.4 -2  0.2000000000000002 -1.4 -2  0.3999999999999999 -1.4 -2  0.6000000000000001 -1.4 -2  0.7999999999999998 -1.4 -2  1 -1.4 -2  1.2 -1.4 -2  1.4 -1.4 -2  1.6 -1.4 -2  1.8 -1.4 -2  2 -1.4 -2  -2 -1.2 -2  -1.8 -1.2 -2  -1.6 -1.2 -2  -1.4 -1.2 -2  -1.2 -1.2 -2  -1 -1.2 -2  -0.8 -1.2 -2  -0.6000000000000001 -1.2 -2  -0.3999999999999999 -1.2 -2  -0.2 -1.2 -2  0 -1.2 -2  0.2000000000000002 -1.2 -2  0.3999999999999999 -1.2 -2  0.6000000000000001 -1.2 -2  0.7999999999999998 -1.2 -2  1 -1.2 -2  1.2 -1.2 -2  1.4 -1.2 -2  1.6 -1.2 -2  1.8 -1.2 -2  2 -1.2 -2  -2 -1 -2  -1.8 -1 -2  -1.6 -1 -2  -1.4 -1 -2  -1.2 -1 -2  -1 -1 -2  -0.8 -1 -2  -0.6000000000000001 -1 -2  -0.3999999999999999 -1 -2  -0.2 -1 -2  0 -1 -2  0.2000000000000002 -1 -2  0.3999999999999999 -1 -2  0.6000000000000001 -1 -2  0.7999999999999998 -1 -2  1 -1 -2  1.2 -1 -2  1.4 -1 -2  1.6 -1 -2  1.8 -1 -2  2 -1 -2  -2 -0.8 -2  -1.8 -0.8 -2  -1.6 -0.8 -2  -1.4 -0.8 -2  -1.2 -0.8 -2  -1 -0.8 -2  -0.8 -0.8 -2  -0.6000000000000001 -0.8 -2  -0.3999999999999999 -0.8 -2  -0.2 -0.8 -2  0 -0.8 -2  0.2000000000000002 -0.8 -2  0.3999999999999999 -0.8 -2  0.6000000000000001 -0.8 -2  0.7999999999999998 -0.8 -2  1 -0.8 -2  1.2 -0.8 -2  1.4 -0.8 -2  1.6 -0.8 -2  1.8 -0.8 -2  2 -0.8 -2  -2 -0.6000000000000001 -2  -1.8 -0.6000000000000001 -2  -1.6 -0.6000000000000001 -2  -1.4 -0.6000000000000001 -2  -1.2 -0.6000000000000001 -2  -1 -0.6000000000000001 -2  -0.8 -0.6000000000000001 -2  -0.6000000000000001 -0.6000000000000001 -2  -0.3999999999999999 -0.6000000000000001 -2  -0.2 -0.6000000000000001 -2  0 -0.6000000000000001 -2  0.2000000000000002 -0.6000000000000001 -2  0.3999999999999999 -0.6000000000000001 -2  0.6000000000000001 -0.6000000000000001 -2  0.7999999999999998 -0.6000000000000001 -2  1 -0.6000000000000001 -2  1.2 -0.6000000000000001 -2  1.4 -0.6000000000000001 -2  1.6 -0.6000000000000001 -2  1.8 -0.6000000000000001 -2  2 -0.6000000000000001 -2  -2 -0.3999999999999999 -2  -1.8 -0.3999999999999999 -2  -1.6 -0.3999999999999999 -2  -1.4 -0.3999999999999999 -2  -1.2 -0.3999999999999999 -2  -1 -0.3999999999999999 -2  -0.8 -0.3999999999999999 -2  -0.6000000000000001 -0.3999999999999999 -2  -0.3999999999999999 -0.3999999999999999 -2  -0.2 -0.3999999999999999 -2  0 -0.3999999999999999 -2  0.2000000000000002 -0.3999999999999999 -2  0.3999999999999999 -0.3999999999999999 -2  0.6000000000000001 -0.3999999999999999 -2  0.7999999999999998 -0.3999999999999999 -2  1 -0.3999999999999999 -2  1.2 -0.3999999999999999 -2  1.4 -0.3999999999999999 -2  1.6 -0.3999999999999999 -2  1.8 -0.3999999999999999 -2  2 -0.3999999999999999 -2  -2 -0.2 -2  -1.8 -0.2 -2  -1.6 -0.2 -2  -1.4 -0.2 -2  -1.2 -0.2 -2  -1 -0.2 -2  -0.8 -0.2 -2  -0.6000000000000001 -0.2 -2  -0.3999999999999999 -0.2 -2  -0.2 -0.2 -2  0 -0.2 -2  0.2000000000000002 -0.2 -2  0.3999999999999999 -0.2 -2  0.6000000000000001 -0.2 -2  0.7999999999999998 -0.2 -2  1 -0.2 -2  1.2 -0.2 -2  1.4 -0.2 -2  1.6 -0.2 -2  1.8 -0.2 -2  2 -0.2 -2  -2 0 -2  -1.8 0 -2  -1.6 0 -2  -1.4 0 -2  -1.2 0 -2  -1 0 -2  -0.8 0 -2  -0.6000000000000001 0 -2  -0.3999999999999999 0 -2  -0.2 0 -2  0 0 -2  0.2000000000000002 0 -2  0.3999999999999999 0 -2  0.6000000000000001 0 -2  0.7999999999999998 0 -2  1 0 -2  1.2 0 -2  1.4 0 -2  1.6 0 -2  1.8 0 -2  2 0 -2  -2 0.2000000000000002 -2  -1.8 0.2000000000000002 -2  -1.6 0.2000000000000002 -2  -1.4 0.2000000000000002 -2  -1.2 0.2000000000000002 -2  -1 0.2000000000000002 -2  -0.8 0.2000000000000002 -2  -0.6000000000000001 0.2000000000000002 -2  -0.3999999999999999 0.2000000000000002 -2  -0.2 0.2000000000000002 -2  0 0.2000000000000002 -2  0.2000000000000002 0.2000000000000002 -2  0.3999999999999999 0.2000000000000002 -2  0.6000000000000001 0.2000000000000002 -2  0.7999999999999998 0.2000000000000002 -2  1 0.2000000000000002 -2  1.2 0.2000000000000002 -2  1.4 0.2000000000000002 -2  1.6 0.2000000000000002 -2  1.8 0.2000000000000002 -2  2 0.2000000000000002 -2  -2 0.3999999999999999 -2  -1.8 0.3999999999999999 -2  -1.6 0.3999999999999999 -2  -1.4 0.3999999999999999 -2  -1.2 0.3999999999999999 -2  -1 0.3999999999999999 -2  -0.8 0.3999999999999999 -2  -0.6000000000000001 0.3999999999999999 -2  -0.3999999999999999 0.3999999999999999 -2  -0.2 0.3999999999999999 -2  0 0.3999999999999999 -2  0.2000000000000002 0.3999999999999999 -2  0.3999999999999999 0.3999999999999999 -2  0.6000000000000001 0.3999999999999999 -2  0.7999999999999998 0.3999999999999999 -2  1 0.3999999999999999 -2  1.2 0.3999999999999999 -2  1.4 0.3999999999999999 -2  1.6 0.3999999999999999 -2  1.8 0.3999999999999999 -2  2 0.3999999999999999 -2  -2 0.6000000000000001 -2  -1.8 0.6000000000000001 -2  -1.6 0.6000000000000001 -2  -1.4 0.6000000000000001 -2  -1.2 0.6000000000000001 -2  -1 0.6000000000000001 -2  -0.8 0.6000000000000001 -2  -0.6000000000000001 0.6000000000000001 -2  -0.3999999999999999 0.6000000000000001 -2  -0.2 0.6000000000000001 -2  0 0.6000000000000001 -2  0.2000000000000002 0.6000000000000001 -2  0.3999999999999999 0.6000000000000001 -2  0.6000000000000001 0.6000000000000001 -2  0.7999999999999998 0.6000000000000001 -2  1 0.6000000000000001 -2  1.2 0.6000000000000001 -2  1.4 0.6000000000000001 -2  1.6 0.6000000000000001 -2  1.8 0.6000000000000001 -2  2 0.6000000000000001 -2  -2 0.7999999999999998 -2  -1.8 0.7999999999999998 -2  -1.6 0.7999999999999998 -2  -1.4 0.7999999999999998 -2  -1.2 0.7999999999999998 -2  -1 0.7999999999999998 -2  -0.8 0.7999999999999998 -2  -0.6000000000000001 0.7999999999999998 -2  -0.3999999999999999 0.7999999999999998 -2  -0.2 0.7999999999999998 -2  0 0.7999999999999998 -2  0.2000000000000002 0.7999999999999998 -2  0.3999999999999999 0.7999999999999998 -2  0.6000000000000001 0.7999999999999998 -2  0.7999999999999998 0.7999999999999998 -2  1 0.7999999999999998 -2  1.2 0.7999999999999998 -2  1.4 0.7999999999999998 -2  1.6 0.7999999999999998 -2  1.8 0.7999999999999998 -2  2 0.7999999999999998 -2  -2 1 -2  -1.8 1 -2  -1.6 1 -2  -1.4 1 -2  -1.2 1 -2  -1 1 -2  -0.8 1 -2  -0.6000000000000001 1 -2  -0.3999999999999999 1 -2  -0.2 1 -2  0 1 -2  0.2000000000000002 1 -2  0.3999999999999999 1 -2  0.6000000000000001 1 -2  0.7999999999999998 1 -2  1 1 -2  1.2 1 -2  1.4 1 -2  1.6 1 -2  1.8 1 -2  2 1 -2  -2 1.2 -2  -1.8 1.2 -2  -1.6 1.2 -2  -1.4 1.2 -2  -1.2 1.2 -2  -1 1.2 -2  -0.8 1.2 -2  -0.6000000000000001 1.2 -2  -0.3999999999999999 1.2 -2  -0.2 1.2 -2  0 1.2 -2  0.2000000000000002 1.2 -2  0.3999999999999999 1.2 -2  0.6000000000000001 1.2 -2  0.7999999999999998 1.2 -2  1 1.2 -2  1.2 1.2 -2  1.4 1.2 -2  1.6 1.2 -2  1.8 1.2 -2  2 1.2 -2  -2 1.4 -2  -1.8 1.4 -2  -1.6 1.4 -2  -1.4 1.4 -2  -1.2 1.4 -2  -1 1.4 -2  -0.8 1.4 -2  -0.6000000000000001 1.4 -2  -0.3999999999999999 1.4 -2  -0.2 1.4 -2  0 1.4 -2  0.2000000000000002 1.4 -2  0.3999999999999999 1.4 -2  0.6000000000000001 1.4 -2  0.7999999999999998 1.4 -2  1 1.4 -2  1.2 1.4 -2  1.4 1.4 -2  1.6 1.4 -2  1.8 1.4 -2  2 1.4 -2  -2 1.6 -2  -1.8 1.6 -2  -1.6 1.6 -2  -1.4 1.6 -2  -1.2 1.6 -2  -1 1.6 -2  -0.8 1.6 -2  -0.6000000000000001 1.6 -2  -0.3999999999999999 1.6 -2  -0.2 1.6 -2  0 1.6 -2  0.2000000000000002 1.6 -2  0.3999999999999999 1.6 -2  0.6000000000000001 1.6 -2  0.7999999999999998 1.6 -2  1 1.6 -2  1.2 1.6 -2  1.4 1.6 -2  1.6 1.6 -2  1.8 1.6 -2  2 1.6 -2  -2 1.8 -2  -1.8 1.8 -2  -1.6 1.8 -2  -1.4 1.8 -2  -1.2 1.8 -2  -1 1.8 -2  -0.8 1.8 -2  -0.6000000000000001 1.8 -2  -0.3999999999999999 1.8 -2  -0.2 1.8 -2  0 1.8 -2  0.2000000000000002 1.8 -2  0.3999999999999999 1.8 -2  0.6000000000000001 1.8 -2  0.7999999999999998 1.8 -2  1 1.8 -2  1.2 1.8 -2  1.4 1.8 -2  1.6 1.8 -2  1.8 1.8 -2  2 1.8 -2  -2 2 -2  -1.8 2 -2  -1.6 2 -2  -1.4 2 -2  -1.2 2 -2  -1 2 -2  -0.8 2 -2  -0.6000000000000001 2 -2  -0.3999999999999999 2 -2  -0.2 2 -2  0 2 -2  0.2000000000000002 2 -2  0.3999999999999999 2 -2  0.6000000000000001 2 -2  0.7999999999999998 2 -2  1 2 -2  1.2 2 -2  1.4 2 -2  1.6 2 -2  1.8 2 -2  2 2 -2  -2 -2 -1.8  -1.8 -2 -1.8  -1.6 -2 -1.8  -1.4 -2 -1.8  -1.2 -2 -1.8  -1 -2 -1.8  -0.8 -2 -1.8  -0.6000000000000001 -2 -1.8  -0.3999999999999999 -2 -1.8  -0.2 -2 -1.8  0 -2 -1.8  0.2000000000000002 -2 -1.8  0.3999999999999999 -2 -1.8  0.6000000000000001 -2 -1.8  0.7999999999999998 -2 -1.8  1 -2 -1.8  1.2 -2 -1.8  1.4 -2 -1.8  1.6 -2 -1.8  1.8 -2 -1.8  2 -2 -1.8  -2 -1.8 -1.8  -1.8 -1.8 -1.8  -1.6 -1.8 -1.8  -1.4 -1.8 -1.8  -1.2 -1.8 -1.8  -1 -1.8 -1.8  -0.8 -1.8 -1.8  -0.6000000000000001 -1.8 -1.8  -0.3999999999999999 -1.8 -1.8  -0.2 -1.8 -1.8  0 -1.8 -1.8  0.2000000000000002 -1.8 -1.8  0.3999999999999999 -1.8 -1.8  0.6000000000000001 -1.8 -1.8  0.7999999999999998 -1.8 -1.8  1 -1.8 -1.8  1.2 -1.8 -1.
[...]
<PointData  Scalars="uA"> 
<DataArray  type="Float64"  Name="uA"  format="ascii">4.6454493725016837e-04  4.7450194959301544e-04  4.8121602434129100e-04  4.8617302451782143e-04  4.9004002038627943e-04  4.9312291904788697e-04  4.9559740653338591e-04  4.9759583428344602e-04  4.9923791001900539e-04  5.0064111847422969e-04  5.0192389838614720e-04  5.0320625007105443e-04  5.0460948120770513e-04  5.0625587013493865e-04  5.0826913951090478e-04  5.1077785942360999e-04  5.1392752047109034e-04  5.1791739512812456e-04  5.2310853321179025e-04  5.3032988513513203e-04  5.4162409760161948e-04  4.7450194959301544e-04  4.8811439557679847e-04  4.9536959504958150e-04  5.0041701270007186e-04  5.0431152222967727e-04  5.0741322901551181e-04  5.0990435338757944e-04  5.1191786186470338e-04  5.1357379774934577e-04  5.1499021351310412e-04  5.1628625185468611e-04  5.1758264429181905e-04  5.1900137915833098e-04  5.2066529675780173e-04  5.2269847524571273e-04  5.2522953457995300e-04  5.2840407242888180e-04  5.3242650073770522e-04  5.3770766643089149e-04  5.4545210956243853e-04  5.6034441047002424e-04  4.8121602434129094e-04  4.9536959504958150e-04  5.0284465141706342e-04  5.0796363010948103e-04  5.1188428182061523e-04  5.1499895832214084e-04  5.1749889175645635e-04  5.1951965473546590e-04  5.2118222253226142e-04  5.2260514211795563e-04  5.2390791916434175e-04  5.2521158308550147e-04  5.2663836728763884e-04  5.2831132116342545e-04  5.3035476809599666e-04  5.3289788579820839e-04  5.3608818077611911e-04  5.4013711355036334e-04  5.4547991076775394e-04  5.5338500787391115e-04  5.6849184145945308e-04  4.8617302451782138e-04  5.0041701270007186e-04  5.0796363010948092e-04  5.1311875849618439e-04  5.1705692840027929e-04  5.2018112787657065e-04  5.2268730234827292e-04  5.2471297161046525e-04  5.2637996188990735e-04  5.2780725073192473e-04  5.2911460028014733e-04  5.3042320804525000e-04  5.3185542362529513e-04  5.3353440004715133e-04  5.3558463922334339e-04  5.3813578904217700e-04  5.4133663139571654e-04  5.4540172220588845e-04  5.5077193663709300e-04  5.5871608837970580e-04  5.7381160760054304e-04  4.9004002038627933e-04  5.0431152222967716e-04  5.1188428182061512e-04  5.1705692840027918e-04  5.2100581867681899e-04  5.2413682122743385e-04  5.2664780141732529e-04  5.2867734058901009e-04  5.3034783496012288e-04  5.3177858207177826e-04  5.3308953404128487e-04  5.3440200239874332e-04  5.3583840446734695e-04  5.3752194727338571e-04  5.3957723104617358e-04  5.4213415262878656e-04  5.4534205307492009e-04  5.4941644800921192e-04  5.5479896049675809e-04  5.6275577636377282e-04  5.7785208598991810e-04  4.9312291904788687e-04  5.0741322901551181e-04  5.1499895832214084e-04  5.2018112787657065e-04  5.2413682122743385e-04  5.2727276913210237e-04  5.2978757899421248e-04  5.3182035103947387e-04  5.3349381837831977e-04  5.3492749519675874e-04  5.3624147222254342e-04  5.3755714521100623e-04  5.3899697749444078e-04  5.4068420347487783e-04  5.4274346328626400e-04  5.4530475076631883e-04  5.4851760165122384e-04  5.5259779628633857e-04  5.5798708939763537e-04  5.6595154939017374e-04  5.8105921328874927e-04  4.9559740653338580e-04  5.0990435338757944e-04  5.1749889175645625e-04  5.2268730234827281e-04  5.2664780141732518e-04  5.2978757899421237e-04  5.3230557300841899e-04  5.3434114261656680e-04  5.3601721763088376e-04  5.3745345777956135e-04  5.3877005745547977e-04  5.4008848029290873e-04  5.4153122756133961e-04  5.4322155119753465e-04  5.4528410418114000e-04  5.4784890912628703e-04  5.5106556518161884e-04  5.5514996477154196e-04  5.6054411209154130e-04  5.6851516238564433e-04  5.8363688142174994e-04  4.9759583428344602e-04  5.1191786186470327e-04  5.1951965473546579e-04  5.2471297161046525e-04  5.2867734058900998e-04  5.3182035103947376e-04  5.3434114261656669e-04  5.3637922519880928e-04  5.3805765520694663e-04  5.3949619849316167e-04  5.4081513407901530e-04  5.4213598715988325e-04  5.4358129762559866e-04  5.4527433681360695e-04  5.4733976621533400e-04  5.4990761898517364e-04  5.5312752621672898e-04  5.5721547966031484e-04  5.6261382949282957e-04  5.7059109350444774e-04  5.8572664441704637e-04  4.9923791001900539e-04  5.1357379774934577e-04  5.2118222253226142e-04  5.2637996188990724e-04  5.3034783496012277e-04  5.3349381837831966e-04  5.3601721763088365e-04  5.3805765520694663e-04  5.3973828582685969e-04  5.4117896490041002e-04  5.4250004941966694e-04  5.4382312695703324e-04  5.4527078189653584e-04  5.4696631316626004e-04  5.4903439806458206e-04  5.5160508412246056e-04  5.5482803614598892e-04  5.5891935388205556e-04  5.6432175395712406e-04  5.7230506286629719e-04  5.8745361531978410e-04  5.0064111847422958e-04  5.1499021351310412e-04  5.2260514211795563e-04  5.2780725073192473e-04  5.3177858207177815e-04  5.3492749519675864e-04  5.3745345777956124e-04  5.3949619849316156e-04  5.4117896490041013e-04  5.4262169966699933e-04  5.4394483915706077e-04  5.4527003823519749e-04  5.4671993366743415e-04  5.4841786197686038e-04  5.5048852730037992e-04  5.5306200270109445e-04  5.5628799776914436e-04  5.6038272993273232e-04  5.6578927496495123e-04  5.7377866101180806e-04  5.8893964242746498e-04  5.0192389838614709e-04  5.1628625185468611e-04  5.2390791916434164e-04  5.2911460028014722e-04  5.3308953404128476e-04  5.3624147222254331e-04  5.3877005745547966e-04  5.4081513407901519e-04  5.4250004941966694e-04  5.4394483915706088e-04  5.4527002464011085e-04  5.4659733416067343e-04  5.4804946397602470e-04  5.4974979662026204e-04  5.5182307310189249e-04  5.5439940402382407e-04  5.5762855783297080e-04  5.6172688361558274e-04  5.6713781836614341e-04  5.7513353657178312e-04  5.9030693629424859e-04  5.0320625007105443e-04  5.1758264429181905e-04  5.2521158308550136e-04  5.3042320804525000e-04  5.3440200239874322e-04  5.3755714521100601e-04  5.4008848029290851e-04  5.4213598715988325e-04  5.4382312695703324e-04  5.4527003823519749e-04  5.4659733416067343e-04  5.4792682131554879e-04  5.4938125937735200e-04  5.5108408109029276e-04  5.5316007037182699e-04  5.5573938524250605e-04  5.5897186889009877e-04  5.6307402542181981e-04  5.6848968327947980e-04  5.7649219695318028e-04  5.9167864325722699e-04  5.0460948120770502e-04  5.1900137915833087e-04  5.2663836728763863e-04  5.3185542362529502e-04  5.3583840446734673e-04  5.3899697749444056e-04  5.4153122756133939e-04  5.4358129762559855e-04  5.4527078189653573e-04  5.4671993366743404e-04  5.4804946397602470e-04  5.4938125937735211e-04  5.5083814177317642e-04  5.5254359196928063e-04  5.5462243649998173e-04  5.5720488637355469e-04  5.6044087621681454e-04  5.6454709983139878e-04  5.6996784192249580e-04  5.7797776951272267e-04  5.9317849013939042e-04  5.0625587013493855e-04  5.2066529675780162e-04  5.2831132116342534e-04  5.3353440004715101e-04  5.3752194727338550e-04  5.4068420347487762e-04  5.4322155119753443e-04  5.4527433681360673e-04  5.4696631316625993e-04  5.4841786197686027e-04  5.4974979662026204e-04  5.5108408109029287e-04  5.5254359196928074e-04  5.5425184807286548e-04  5.5633370990145869e-04  5.5891944027349253e-04  5.6215908022563550e-04  5.6626955663946076e-04  5.7169570569311418e-04  5.7971372842112684e-04  5.9493040977375640e-04  5.0826913951090456e-04  5.2269847524571240e-04  5.3035476809599645e-04  5.3558463922334307e-04  5.3957723104617326e-04  5.4274346328626378e-04  5.4528410418113978e-04  5.4733976621533379e-04  5.4903439806458195e-04  5.5048852730037981e-04  5.5182307310189238e-04  5.5316007037182710e-04  5.5462243649998183e-04  5.5633370990145869e-04  5.5841876667586665e-04  5.6100791089744295e-04  5.6425129889875838e-04  5.6836613453698425e-04  5.7379791098184857e-04  5.8182462445202426e-04  5.9705908773506806e-04  5.1077785942360977e-04  5.2522953457995278e-04  5.3289788579820806e-04  5.3813578904217667e-04  5.4213415262878623e-04  5.4530475076631862e-04  5.4784890912628682e-04  5.4990761898517343e-04  5.5160508412246034e-04  5.5306200270109434e-04  5.5439940402382407e-04  5.5573938524250605e-04  5.5720488637355469e-04  5.5891944027349253e-04  5.6100791089744295e-04  5.6360062189631628e-04  5.6684784293072033e-04  5.7096708645515068e-04  5.7640457230440231e-04  5.8444023645993039e-04  5.9969361168989881e-04  5.1392752047109001e-04  5.2840407242888158e-04  5.3608818077611889e-04  5.4133663139571632e-04  5.4534205307491977e-04  5.4851760165122352e-04  5.5106556518161862e-04  5.5312752621672877e-04  5.5482803614598881e-04  5.5628799776914425e-04  5.5762855783297080e-04  5.5897186889009866e-04  5.6044087621681465e-04  5.6215908022563550e-04  5.6425129889875849e-04  5.6684784293072033e-04  5.7009908015295515e-04  5.7422284340789397e-04  5.7966604739036513e-04  5.8771018774248375e-04  6.0298057168227078e-04  5.1791739512812435e-04  5.3242650073770490e-04  5.4013711355036301e-04  5.4540172220588824e-04  5.4941644800921160e-04  5.5259779628633824e-04  5.5514996477154163e-04  5.5721547966031452e-04  5.5891935388205534e-04  5.6038272993273232e-04  5.6172688361558274e-04  5.6307402542181981e-04  5.6454709983139889e-04  5.6626955663946087e-04  5.6836613453698425e-04  5.7096708645515068e-04  5.7422284340789397e-04  5.7835156463171915e-04  5.8380075477539799e-04  5.9185189981859139e-04  6.0712794315325954e-04  5.2310853321179004e-04  5.3770766643089127e-04  5.4547991076775372e-04  5.5077193663709278e-04  5.5479896049675777e-04  5.5798708939763515e-04  5.6054411209154097e-04  5.6261382949282935e-04  5.6432175395712385e-04  5.6578927496495112e-04  5.6713781836614341e-04  5.6848968327947980e-04  5.6996784192249591e-04  5.7169570569311429e-04  5.7379791098184857e-04  5.7640457230440231e-04  5.7966604739036502e-04  5.8380075477539799e-04  5.8925706296875178e-04  5.9731498161156953e-04  6.1256611489229646e-04  5.3032988513513181e-04  5.4545210956243831e-04  5.5338500787391093e-04  5.5871608837970558e-04  5.6275577636377249e-04  5.6595154939017352e-04  5.6851516238564412e-04  5.7059109350444752e-04  5.7230506286629697e-04  5.7377866101180784e-04  5.7513353657178301e-04  5.7649219695318028e-04  5.7797776951272267e-04  5.7971372842112684e-04  5.8182462445202426e-04  5.8444023645993039e-04  5.8771018774248375e-04  5.9185189981859128e-04  5.9731498161156953e-04  6.0539283689927943e-04  6.2065310848599068e-04  5.4162409760161927e-04  5.6034441047002402e-04  5.6849184145945286e-04  5.7381160760054282e-04  5.7785208598991778e-04  5.8105921328874906e-04  5.8363688142174983e-04  5.8572664441704616e-04  5.8745361531978399e-04  5.8893964242746487e-04  5.9030693629424859e-04  5.9167864325722699e-04  5.9317849013939042e-04  5.9493040977375640e-04  5.9705908773506806e-04  5.9969361168989881e-04  6.0298057168227078e-04  6.0712794315325943e-04  6.1256611489229646e-04  6.2065310848599068e-04  6.3744793412449192e-04  5.5938492140645852e-04  5.6538560534201442e-04  5.7109492287692220e-04  5.7590947105273880e-04  5.7986124927214880e-04  5.8307635320822121e-04  5.8568097277164860e-04  5.8779582134577373e-04  5.8954070333108819e-04  5.9103717263140341e-04  5.9240916167288288e-04  5.9378258168934399e-04  5.9528449475407567e-04  5.9704218883354580e-04  5.9918256547820048e-04  6.0183266451216476e-04  6.0512260279146023e-04  6.0919050641149652e-04  6.1417264767051679e-04  6.2006890686284847e-04  6.2593893166624679e-04  5.6538560534201442e-04  5.7140454698893935e-04  5.7719086072113043e-04  5.8202751172905544e-04  5.8598443808110189e-04  5.8920145765674131e-04  5.9180783849561991e-04  5.9392481321075754e-04  5.9567226429806477e-04  5.9717179299313976e-04  5.9854738496079344e-04  5.9992498681005473e-04  6.0143165709701464e-04  6.0319463355359417e-04  6.0534073442390537e-04  6.0799697759038231e-04  6.1129403394280730e-04  6.1537373646978588e-04  6.2039046115367120e-04  6.2641198611565626e-04  6.3258575424842811e-04  5.7109492287692220e-04  5.7719086072113043e-04  5.8304577968020215e-04  5.8791541296525146e-04  5.9188667582484381e-04  5.9511082748386424e-04  5.9772183390453869e-04  5.9984263812865556e-04  6.0159377646207594e-04  6.0309715162010777e-04  6.0447691901762541e-04  6.0585912481239690e-04  6.0737087728620514e-04  6.0913944120377888e-04  6.1129171753827405e-04  6.1395510073330756e-04  6.1726164570021684e-04  6.2135752962856974e-04  6.2640831590427123e-04  6.3249839888217447e-04  6.3873754099359921e-04  5.7590947105273880e-04  5.8202751172905544e-04  5.8791541296525146e-04  5.9280668201871849e-04  5.9679004015378474e-04  6.0002121084295459e-04  6.0263692886604878e-04  6.0476150260714752e-04  6.0651611775331597e-04  6.0802300372263512e-04  6.0940649160070681e-04  6.1079271997678867e-04  6.1230883938411668e-04  6.1408214431689454e-04  6.1623963075596469e-04  6.1890902664303029e-04  6.2222330951916321e-04  6.2633067249308512e-04  6.3139951356699898e-04  6.3751237350146101e-04  6.4375361676708180e-04  5.7986124927214870e-04  5.8598443808110178e-04  5.9188667582484370e-04  5.9679004015378474e-04  6.0078169386749340e-04  6.0401847679635468e-04  6.0663830885216471e-04  6.0876627394359714e-04  6.1052400841488401e-04  6.1203399931370861e-04  6.1342072378358346e-04  6.1481039629427835e-04  6.1633019851396655e-04  6.1810744086996045e-04  6.2026917062051761e-04  6.2294328661632696e-04  6.2626315954229241e-04  6.3037757467623368e-04  6.3545503847214023e-04  6.4157526137993660e-04  6.4781312831939256e-04  5.8307635320822111e-04  5.8920145765674120e-04  5.9511082748386413e-04  6.0002121084295459e-04  6.0401847679635468e-04  6.0725958701653962e-04  6.0988288971782888e-04  6.1201384750303261e-04  6.1377436573537925e-04  6.1528710945765318e-04  6.1667666715291183e-04  6.1806931455523630e-04  6.1959225779070531e-04  6.2137281236943943e-04  6.2353803822516140e-04  6.2621588883174622e-04  6.2953984881725577e-04  6.3365879827693473e-04  6.3874097979929308e-04  6.4486472396854059e-04  6.5110141819847180e-04  5.8568097277164860e-04  5.9180783849561991e-04  5.9772183390453869e-04  6.0263692886604878e-04  6.0663830885216471e-04  6.0988288971782878e-04  6.1250916916745740e-04  6.1464278892576715e-04  6.1640580972937892e-04  6.1792101691127176e-04  6.1931308425832343e-04  6.2070834000671905e-04  6.2223401406877408e-04  6.2401742525078927e-04  6.2618562963155037e-04  6.2886658447946044e-04  6.3219378912445466e-04  6.3631611441157380e-04  6.4140166169189452e-04  6.4752825570952156e-04  6.5376553859405331e-04  5.8779582134577363e-04  5.9392481321075743e-04  5.9984263812865545e-04  6.0476150260714752e-04  6.0876627394359703e-04  6.1201384750303250e-04  6.1464278892576704e-04  6.1677883575763325e-04  6.1854414686423915e-04  6.2006159565922408e-04  6.2145592707903228e-04  6.2285351958658440e-04  6.2438163142258677e-04  6.2616759071158919e-04  6.2833845059226704e-04  6.3102216171047982e-04  6.3435221895308703e-04  6.3847748835656128e-04  6.4356604644057245e-04  6.4969555432197010e-04  6.5593441164955326e-04  5.8954070333108819e-04  5.9567226429806477e-04  6.0159377646207594e-04  6.0651611775331597e-04  6.1052400841488390e-04  6.1377436573537914e-04  6.1640580972937881e-04  6.1854414686423915e-04  6.2031161187868250e-04  6.2183115324084795e-04  6.2322758277190589e-04  6.2462733189816324e-04  6.2615769483808997e-04  6.2794601908800244e-04  6.3011936443237659e-04  6.3280568206422591e-04  6.3613846974543641e-04  6.4026660862891366e-04  6.4535820563825605e-04  6.5149086381281979e-04  6.5773191573348226e-04  5.9103717263140341e-04  5.9717179299313976e-04  6.0309715162010788e-04  6.0802300372263512e-04  6.1203399931370850e-04  6.1528710945765307e-04  6.1792101691127165e-04  6.2006159565922397e-04  6.2183115324084795e-04  6.2335271207646721e-04  6.2475115293074825e-04  6.2615296553266331e-04  6.2768548830737674e-04  6.2947609848942713e-04  6.3165187408013184e-04  6.3434077903981102e-04  6.3767632765853680e-04  6.4180743380741478e-04  6.4690225809505583e-04  6.5303837326227405e-04  6.5928212763944412e-04  5.9240916167288288e-04  5.9854738496079344e-04  6.0447691901762541e-04  6.0940649160070670e-04  6.1342072378358335e-04  6.1667666715291172e-04  6.1931308425832333e-04  6.2145592707903217e-04  6.2322758277190589e-04  6.2475115293074836e-04  6.2615159217003439e-04  6.2755545389482398e-04  6.2909012707860557e-04  6.3088302636949832e-04  6.3306125736690934e-04  6.3575280841278003e-04  6.3909122482336961e-04  6.4322547061374674e-04  6.4832377810104618e-04  6.5446370508212592e-04  6.6071065948318682e-04  5.9378258168934388e-04  5.9992498681005462e-04  6.0585912481239679e-04  6.1079271997678856e-04  6.1481039629427824e-04  6.1806931455523609e-04  6.2070834000671883e-04  6.2285351958658430e-04  6.2462733189816324e-04  6.2615296553266331e-04  6.2755545389482398e-04  6.2896141714334204e-04  6.3049829702192242e-04  6.3229354814088796e-04  6.3447430812341458e-04  6.3716859796859133e-04  6.4051000823240982e-04  6.4464757449740162e-04  6.4974962826704909e-04  6.5589374066799206e-04  6.6214439838529289e-04  5.9528449475407556e-04  6.0143165709701442e-04  6.0737087728620503e-04  6.1230883938411657e-04  6.1633019851396644e-04  6.1959225779070499e-04  6.2223401406877375e-04  6.2438163142258666e-04  6.2615769483808986e-04  6.2768548830737664e-04  6.2909012707860557e-04  6.3049829702192253e-04  6.3203748889410435e-04  6.3383519264163042e-04  6.3601857512592347e-04  6.3871569282649245e-04  6.4206019448317009e-04  6.4620121446151680e-04  6.5130722651078621e-04  6.5745586638982451e-04  6.6371070503214071e-04  5.9704218883354558e-04  6.0319463355359396e-04  6.0913944120377867e-04  6.1408214431689422e-04  6.1810744086996012e-04  6.2137281236943921e-04  6.2401742525078905e-04  6.2616759071158897e-04  6.2794601908800233e-04  6.2947609848942702e-04  6.3088302636949832e-04  6.3229354814088807e-04  6.3383519264163053e-04  6.3563547181216351e-04  6.3782156973413726e-04  6.4052157334634568e-04  6.4386919895542195e-04  6.4801371109128288e-04  6.5312378351191054e-04  6.5927719192526984e-04  6.6553659902500928e-04  5.9918256547820026e-04  6.0534073442390505e-04  6.1129171753827372e-04  6.1623963075596426e-04  6.2026917062051718e-04  6.2353803822516119e-04  6.2618562963155005e-04  6.2833845059226683e-04  6.3011936443237648e-04  6.3165187408013184e-04  6.3306125736690923e-04  6.3447430812341469e-04  6.3601857512592358e-04  6.3782156973413737e-04  6.4001047061834897e-04  6.4271337985417746e-04  6.4606408366754003e-04  6.5021200734704718e-04  6.5532608768406717e-04  6.6148432338484922e-04  6.6774848875980120e-04  6.0183266451216454e-04  6.0799697759038199e-04  6.1395510073330713e-04  6.1890902664302986e-04  6.2294328661632653e-04  6.2621588883174600e-04  6.2886658447946023e-04  6.3102216171047961e-04  6.3280568206422580e-04  6.3434077903981091e-04  6.3575280841277992e-04  6.3716859796859133e-04  6.3871569282649245e-04  6.4052157334634578e-04  6.4271337985417746e-04  6.4541920280807128e-04  6.4877289156951726e-04  6.5292405850417951e-04  6.5804195664127840e-04  6.6420484246913422e-04  6.7047357060398072e-04  6.0512260279146001e-04  6.1129403394280708e-04  6.1726164570021652e-04  6.2222330951916289e-04  6.2626315954229209e-04  6.2953984881725545e-04  6.3219378912445444e-04  6.3435221895308681e-04  6.3613846974543619e-04  6.3767632765853669e-04  6.3909122482336950e-04  6.4051000823240982e-04  6.4206019448317020e-04  6.4386919895542205e-04  6.4606408366754003e-04  6.4877289156951726e-04  6.5212952487977169e-04  6.5628382410073743e-04  6.6140542669786140e-04  6.6757274724554090e-04  6.7384523658616576e-04  6.0919050641149619e-04  6.1537373646978555e-04  6.2135752962856942e-04  6.2633067249308479e-04  6.3037757467623336e-04  6.3365879827693441e-04  6.3631611441157358e-04  6.3847748835656095e-04  6.4026660862891345e-04  6.4180743380741468e-04  6.4322547061374674e-04  6.4464757449740162e-04  6.4620121446151702e-04  6.4801371109128310e-04  6.5021200734704729e-04  6.5292405850417951e-04  6.5628382410073743e-04  6.6044152105585092e-04  6.6556753509182604e-04  6.7174051222072925e-04  6.7801630434660698e-04  6.1417264767051646e-04  6.2039046115367098e-04  6.2640831590427091e-04  6.3139951356699865e-04  6.3545503847214002e-04  6.3874097979929286e-04  6.4140166169189420e-04  6.4356604644057224e-04  6.4535820563825584e-04  6.4690225809505572e-04  6.4832377810104618e-04 