<?xml version="1.0"?>
<VTKFile type="UnstructuredGrid"  version="0.1"  >
<UnstructuredGrid>
<Piece  NumberOfPoints="9261" NumberOfCells="48000">
<Points>
<DataArray  type="Float64"  NumberOfComponents="3"  format="ascii">-2 -2 -2  -1.8 -2 -2  -1.6 -2 -2  -1.4 -2 -2  -1.2 -2 -2  -1 -2 -2  -0.8 -2 -2  -0.6000000000000001 -2 -2  -0.3999999999999999 -2 -2  -0.2 -2 -2  0 -2 -2  0.2000000000000002 -2 -2  0.3999999999999999 -2 -2  0.6000000000000001 -2 -2  0.7999999999999998 -2 -2  1 -2 -2  1.2 -2 -2  1.4 -2 -2  1.6 -2 -2  1.8 -2 -2  2 -2 -2  -2 -1.8 -2  -1.8 -1.8 -2  -1.6 -1.8 -2  -1.4 -1.8 -2  -1.2 -1.8 -2  -1 -1.8 -2  -0.8 -1.8 -2  -0.6000000000000001 -1.8 -2  -0.3999999999999999 -1.8 -2  -0.2 -1.8 -2  0 -1.8 -2  0.2000000000000002 -1.8 -2  0.3999999999999999 -1.8 -2  0.6000000000000001 -1.8 -2  0.7999999999999998 -1.8 -2  1 -1.8 -2  1.2 -1.8 -2  1.4 -1.8 -2  1.6 -1.8 -2  1.8 -1.8 -2  2 -1.8 -2  -2 -1.6 -2  -1.8 -1.6 -2  -1.6 -1.6 -2  -1.4 -1.6 -2  -1.2 -1.6 -2  -1 -1.6 -2  -0.8 -1.6 -2  -0.6000000000000001 -1.6 -2  -0.3999999999999999 -1.6 -2  -0.2 -1.6 -2  0 -1.6 -2  0.2000000000000002 -1.6 -2  0.3999999999999999 -1.6 -2  0.6000000000000001 -1.6 -2  0.7999999999999998 -1.6 -2  1 -1.6 -2  1.2 -1.6 -2  1.4 -1.6 -2  1.6 -1.6 -2  1.8 -1.6 -2  2 -1.6 -2  -2 -1.4 -2  -1.8 -1.4 -2  -1.6 -1.4 -2  -1.4 -1.4 -2  -1.2 -1.4 -2  -1 -1.4 -2  -0.8 -1.4 -2  -0.6000000000000001 -1.4 -2  -0.3999999999999999 -1.4 -2  -0.2 -1.4 -2  0 -1.4 -2  0.2000000000000002 -1.4 -2  0.3999999999999999 -1.4 -2  0.6000000000000001 -1.4 -2  0.7999999999999998 -1.4 -2  1 -1.4 -2  1.2 -1.4 -2  1.4 -1.4 -2  1.6 -1.4 -2  1.8 -1.4 -2  2 -1.4 -2  -2 -1.2 -2  -1.8 -1.2 -2  -1.6 -1.2 -2  -1.4 -1.2 -2  -1.2 -1.2 -2  -1 -1.2 -2  -0.8 -1.2 -2  -0.6000000000000001 -1.2 -2  -0.3999999999999999 -1.2 -2  -0.2 -1.2 -2  0 -1.2 -2  0.2000000000000002 -1.2 -2  0.3999999999999999 -1.2 -2  0.6000000000000001 -1.2 -2  0.7999999999999998 -1.2 -2  1 -1.2 -2  1.2 -1.2 -2  1.4 -1.2 -2  1.6 -1.2 -2  1.8 -1.2 -2  2 -1.2 -2  -2 -1 -2  -1.8 -1 -2  -1.6 -1 -2  -1.4 -1 -2  -1.2 -1 -2  -1 -1 -2  -0.8 -1 -2  -0.6000000000000001 -1 -2  -0.3999999999999999 -1 -2  -0.2 -1 -2  0 -1 -2  0.2000000000000002 -1 -2  0.3999999999999999 -1 -2  0.6000000000000001 -1 -2  0.7999999999999998 -1 -2  1 -1 -2  1.2 -1 -2  1.4 -1 -2  1.6 -1 -2  1.8 -1 -2  2 -1 -2  -2 -0.8 -2  -1.8 -0.8 -2  -1.6 -0.8 -2  -1.4 -0.8 -2  -1.2 -0.8 -2  -1 -0.8 -2  -0.8 -0.8 -2  -0.6000000000000001 -0.8 -2  -0.3999999999999999 -0.8 -2  -0.2 -0.8 -2  0 -0.8 -2  0.2000000000000002 -0.8 -2  0.3999999999999999 -0.8 -2  0.6000000000000001 -0.8 -2  0.7999999999999998 -0.8 -2  1 -0.8 -2  1.2 -0.8 -2  1.4 -0.8 -2  1.6 -0.8 -2  1.8 -0.8 -2  2 -0.8 -2  -2 -0.6000000000000001 -2  -1.8 -0.6000000000000001 -2  -1.6 -0.6000000000000001 -2  -1.4 -0.6000000000000001 -2  -1.2 -0.6000000000000001 -2  -1 -0.6000000000000001 -2  -0.8 -0.6000000000000001 -2  -0.6000000000000001 -0.6000000000000001 -2  -0.3999999999999999 -0.6000000000000001 -2  -0.2 -0.6000000000000001 -2  0 -0.6000000000000001 -2  0.2000000000000002 -0.6000000000000001 -2  0.3999999999999999 -0.6000000000000001 -2  0.6000000000000001 -0.6000000000000001 -2  0.7999999999999998 -0.6000000000000001 -2  1 -0.6000000000000001 -2  1.2 -0.6000000000000001 -2  1.4 -0.6000000000000001 -2  1.6 -0.6000000000000001 -2  1.8 -0.6000000000000001 -2  2 -0.6000000000000001 -2  -2 -0.3999999999999999 -2  -1.8 -0.3999999999999999 -2  -1.6 -0.3999999999999999 -2  -1.4 -0.3999999999999999 -2  -1.2 -0.3999999999999999 -2  -1 -0.3999999999999999 -2  -0.8 -0.3999999999999999 -2  -0.6000000000000001 -0.3999999999999999 -2  -0.3999999999999999 -0.3999999999999999 -2  -0.2 -0.3999999999999999 -2  0 -0.3999999999999999 -2  0.2000000000000002 -0.3999999999999999 -2  0.3999999999999999 -0.3999999999999999 -2  0.6000000000000001 -0.3999999999999999 -2  0.7999999999999998 -0.3999999999999999 -2  1 -0.3999999999999999 -2  1.2 -0.3999999999999999 -2  1.4 -0.3999999999999999 -2  1.6 -0.3999999999999999 -2  1.8 -0.3999999999999999 -2  2 -0.3999999999999999 -2  -2 -0.2 -2  -1.8 -0.2 -2  -1.6 -0.2 -2  -1.4 -0.2 -2  -1.2 -0.2 -2  -1 -0.2 -2  -0.8 -0.2 -2  -0.6000000000000001 -0.2 -2  -0.3999999999999999 -0.2 -2  -0.2 -0.2 -2  0 -0.2 -2  0.2000000000000002 -0.2 -2  0.3999999999999999 -0.2 -2  0.6000000000000001 -0.2 -2  0.7999999999999998 -0.2 -2  1 -0.2 -2  1.2 -0.2 -2  1.4 -0.2 -2  1.6 -0.2 -2  1.8 -0.2 -2  2 -0.2 -2  -2 0 -2  -1.8 0 -2  -1.6 0 -2  -1.4 0 -2  -1.2 0 -2  -1 0 -2  -0.8 0 -2  -0.6000000000000001 0 -2  -0.3999999999999999 0 -2  -0.2 0 -2  0 0 -2  0.2000000000000002 0 -2  0.3999999999999999 0 -2  0.6000000000000001 0 -2  0.7999999999999998 0 -2  1 0 -2  1.2 0 -2  1.4 0 -2  1.6 0 -2  1.8 0 -2  2 0 -2  -2 0.2000000000000002 -2  -1.8 0.2000000000000002 -2  -1.6 0.2000000000000002 -2  -1.4 0.2000000000000002 -2  -1.2 0.2000000000000002 -2  -1 0.2000000000000002 -2  -0.8 0.2000000000000002 -2  -0.6000000000000001 0.2000000000000002 -2  -0.3999999999999999 0.2000000000000002 -2  -0.2 0.2000000000000002 -2  0 0.2000000000000002 -2  0.2000000000000002 0.2000000000000002 -2  0.3999999999999999 0.2000000000000002 -2  0.6000000000000001 0.2000000000000002 -2  0.7999999999999998 0.2000000000000002 -2  1 0.2000000000000002 -2  1.2 0.2000000000000002 -2  1.4 0.2000000000000002 -2  1.6 0.2000000000000002 -2  1.8 0.2000000000000002 -2  2 0.2000000000000002 -2  -2 0.3999999999999999 -2  -1.8 0.3999999999999999 -2  -1.6 0.3999999999999999 -2  -1.4 0.3999999999999999 -2  -1.2 0.3999999999999999 -2  -1 0.3999999999999999 -2  -0.8 0.3999999999999999 -2  -0.6000000000000001 0.3999999999999999 -2  -0.3999999999999999 0.3999999999999999 -2  -0.2 0.3999999999999999 -2  0 0.3999999999999999 -2  0.2000000000000002 0.3999999999999999 -2  0.3999999999999999 0.3999999999999999 -2  0.6000000000000001 0.3999999999999999 -2  0.7999999999999998 0.3999999999999999 -2  1 0.3999999999999999 -2  1.2 0.3999999999999999 -2  1.4 0.3999999999999999 -2  1.6 0.3999999999999999 -2  1.8 0.3999999999999999 -2  2 0.3999999999999999 -2  -2 0.6000000000000001 -2  -1.8 0.6000000000000001 -2  -1.6 0.6000000000000001 -2  -1.4 0.6000000000000001 -2  -1.2 0.6000000000000001 -2  -1 0.6000000000000001 -2  -0.8 0.6000000000000001 -2  -0.6000000000000001 0.6000000000000001 -2  -0.3999999999999999 0.6000000000000001 -2  -0.2 0.6000000000000001 -2  0 0.6000000000000001 -2  0.2000000000000002 0.6000000000000001 -2  0.3999999999999999 0.6000000000000001 -2  0.6000000000000001 0.6000000000000001 -2  0.7999999999999998 0.6000000000000001 -2  1 0.6000000000000001 -2  1.2 0.6000000000000001 -2  1.4 0.6000000000000001 -2  1.6 0.6000000000000001 -2  1.8 0.6000000000000001 -2  2 0.6000000000000001 -2  -2 0.7999999999999998 -2  -1.8 0.7999999999999998 -2  -1.6 0.7999999999999998 -2  -1.4 0.7999999999999998 -2  -1.2 0.7999999999999998 -2  -1 0.7999999999999998 -2  -0.8 0.7999999999999998 -2  -0.6000000000000001 0.7999999999999998 -2  -0.3999999999999999 0.7999999999999998 -2  -0.2 0.7999999999999998 -2  0 0.7999999999999998 -2  0.2000000000000002 0.7999999999999998 -2  0.3999999999999999 0.7999999999999998 -2  0.6000000000000001 0.7999999999999998 -2  0.7999999999999998 0.7999999999999998 -2  1 0.7999999999999998 -2  1.2 0.7999999999999998 -2  1.4 0.7999999999999998 -2  1.6 0.7999999999999998 -2  1.8 0.7999999999999998 -2  2 0.7999999999999998 -2  -2 1 -2  -1.8 1 -2  -1.6 1 -2  -1.4 1 -2  -1.2 1 -2  -1 1 -2  -0.8 1 -2  -0.6000000000000001 1 -2  -0.3999999999999999 1 -2  -0.2 1 -2  0 1 -2  0.2000000000000002 1 -2  0.3999999999999999 1 -2  0.6000000000000001 1 -2  0.7999999999999998 1 -2  1 1 -2  1.2 1 -2  1.4 1 -2  1.6 1 -2  1.8 1 -2  2 1 -2  -2 1.2 -2  -1.8 1.2 -2  -1.6 1.2 -2  -1.4 1.2 -2  -1.2 1.2 -2  -1 1.2 -2  -0.8 1.2 -2  -0.6000000000000001 1.2 -2  -0.3999999999999999 1.2 -2  -0.2 1.2 -2  0 1.2 -2  0.2000000000000002 1.2 -2  0.3999999999999999 1.2 -2  0.6000000000000001 1.2 -2  0.7999999999999998 1.2 -2  1 1.2 -2  1.2 1.2 -2  1.4 1.2 -2  1.6 1.2 -2  1.8 1.2 -2  2 1.2 -2  -2 1.4 -2  -1.8 1.4 -2  -1.6 1.4 -2  -1.4 1.4 -2  -1.2 1.4 -2  -1 1.4 -2  -0.8 1.4 -2  -0.6000000000000001 1.4 -2  -0.3999999999999999 1.4 -2  -0.2 1.4 -2  0 1.4 -2  0.2000000000000002 1.4 -2  0.3999999999999999 1.4 -2  0.6000000000000001 1.4 -2  0.7999999999999998 1.4 -2  1 1.4 -2  1.2 1.4 -2  1.4 1.4 -2  1.6 1.4 -2  1.8 1.4 -2  2 1.4 -2  -2 1.6 -2  -1.8 1.6 -2  -1.6 1.6 -2  -1.4 1.6 -2  -1.2 1.6 -2  -1 1.6 -2  -0.8 1.6 -2  -0.6000000000000001 1.6 -2  -0.3999999999999999 1.6 -2  -0.2 1.6 -2  0 1.6 -2  0.2000000000000002 1.6 -2  0.3999999999999999 1.6 -2  0.6000000000000001 1.6 -2  0.7999999999999998 1.6 -2  1 1.6 -2  1.2 1.6 -2  1.4 1.6 -2  1.6 1.6 -2  1.8 1.6 -2  2 1.6 -2  -2 1.8 -2  -1.8 1.8 -2  -1.6 1.8 -2  -1.4 1.8 -2  -1.2 1.8 -2  -1 1.8 -2  -0.8 1.8 -2  -0.6000000000000001 1.8 -2  -0.3999999999999999 1.8 -2  -0.2 1.8 -2  0 1.8 -2  0.2000000000000002 1.8 -2  0.3999999999999999 1.8 -2  0.6000000000000001 1.8 -2  0.7999999999999998 1.8 -2  1 1.8 -2  1.2 1.8 -2  1.4 1.8 -2  1.6 1.8 -2  1.8 1.8 -2  2 1.8 -2  -2 2 -2  -1.8 2 -2  -1.6 2 -2  -1.4 2 -2  -1.2 2 -2  -1 2 -2  -0.8 2 -2  -0.6000000000000001 2 -2  -0.3999999999999999 2 -2  -0.2 2 -2  0 2 -2  0.2000000000000002 2 -2  0.3999999999999999 2 -2  0.6000000000000001 2 -2  0.7999999999999998 2 -2  1 2 -2  1.2 2 -2  1.4 2 -2  1.6 2 -2  1.8 2 -2  2 2 -2  -2 -2 -1.8  -1.8 -2 -1.8  -1.6 -2 -1.8  -1.4 -2 -1.8  -1.2 -2 -1.8  -1 -2 -1.8  -0.8 -2 -1.8  -0.6000000000000001 -2 -1.8  -0.3999999999999999 -2 -1.8  -0.2 -2 -1.8  0 -2 -1.8  0.2000000000000002 -2 -1.8  0.3999999999999999 -2 -1.8  0.6000000000000001 -2 -1.8  0.7999999999999998 -2 -1.8  1 -2 -1.8  1.2 -2 -1.8  1.4 -2 -1.8  1.6 -2 -1.8  1.8 -2 -1.8  2 -2 -1.8  -2 -1.8 -1.8  -1.8 -1.8 -1.8  -1.6 -1.8 -1.8  -1.4 -1.8 -1.8  -1.2 -1.8 -1.8  -1 -1.8 -1.8  -0.8 -1.8 -1.8  -0.6000000000000001 -1.8 -1.8  -0.3999999999999999 -1.8 -1.8  -0.2 -1.8 -1.8  0 -1.8 -1.8  0.2000000000000002 -1.8 -1.8  0.3999999999999999 -1.8 -1.8  0.6000000000000001 -1.8 -1.8  0.7999999999999998 -1.8 -1.8  1 -1.8 -1.8  1.2 -1.8 -1.
[...]
<PointData  Scalars="uA"> 
<DataArray  type="Float64"  Name="uA"  format="ascii">1.0821210797805789e-13  1.1314555896740177e-13  1.2833575678505187e-13  8.9119952354837182e-14  -1.0375299007151372e-13  -1.9246083276117002e-13  2.5160366029951954e-13  8.7904227855480117e-13  6.7266935313240376e-13  -3.4456944631015620e-13  -9.2319697768154488e-13  -6.1221367189251698e-13  -1.6742547978316458e-13  -2.2826987752935118e-14  -5.8586140923500308e-15  -7.8274846357748640e-16  -8.6069998695852012e-16  -9.6203615284227063e-16  -4.4002749051835042e-16  -1.1566385673800578e-16  -2.9402083490694372e-17  1.1314555896740500e-13  9.7434533759336220e-14  1.0053925343671723e-13  7.7227515348385237e-14  -4.9037719259535609e-14  -1.1652109387470704e-13  1.6935499921995388e-13  5.9535016965853732e-13  4.7786742145888038e-13  -1.8716211322424309e-13  -5.6938812635844523e-13  -3.7220456115022201e-13  -9.9075231919836352e-14  -1.6045862541418841e-14  -3.7235609877370791e-15  -2.7682931624756393e-16  -7.2345534881352773e-16  -4.7160123886636703e-16  -1.3575180289278652e-16  -2.2107234780060482e-17  -2.6808593659156586e-18  1.2833575678505760e-13  1.0053925343671843e-13  9.6917005409016385e-14  7.1546229511539718e-14  -3.8460908250619805e-14  -8.0863386462123949e-14  1.8998795136179524e-13  5.5390669261025126e-13  4.0884593882657828e-13  -2.0753547809949981e-13  -5.3989472847555670e-13  -3.4437407088028977e-13  -8.7466175052346278e-14  -9.7285399923317964e-15  -1.1947502868308443e-15  -4.0077192736214227e-16  -7.3976260763809645e-16  -3.3174604081587164e-16  -8.6295424200473180e-17  -4.6508772388024827e-18  1.3546942994761319e-17  8.9119952354839858e-14  7.7227515348383167e-14  7.1546229511536765e-14  4.5900408518891954e-14  -5.8290211689297915e-14  -9.1729801873632878e-14  1.7704406576374329e-13  5.1798986237157033e-13  3.4506651980764858e-13  -2.8107025695883772e-13  -6.0640352481688323e-13  -3.9829456214633532e-13  -1.2548048284994417e-13  -3.2708301984254276e-14  -1.4664148474742821e-14  -7.8969581083549505e-15  -4.3586267260842698e-15  -2.0018640647559929e-15  -7.9491537168272635e-16  -2.5052566312147669e-16  -6.6773857430192016e-17  -1.0375299007151874e-13  -4.9037719259541964e-14  -3.8460908250623636e-14  -5.8290211689297410e-14  -1.5925894348240191e-13  -1.9937613230611612e-13  4.9259337417996753e-14  3.6643572935295488e-13  1.8543989431796706e-13  -4.2146223606953712e-13  -7.0813278248634363e-13  -4.5928459316277968e-13  -1.5531948843241889e-13  -4.4497361795499897e-14  -1.8867634388506624e-14  -9.6323416688310489e-15  -5.4489307520576023e-15  -2.9175206137233872e-15  -1.4542925530251297e-15  -6.3270207193413501e-16  -2.7490331302155202e-16  -1.9246083276118064e-13  -1.1652109387471307e-13  -8.0863386462122914e-14  -9.1729801873627691e-14  -1.9937613230611311e-13  -2.6319073213516608e-13  -3.9754864045059447e-14  2.8039002392822989e-13  1.4647943421060358e-13  -3.8646836239768333e-13  -6.0930586068648778e-13  -3.3269194560693836e-13  -3.7100629713094862e-14  4.5393215883368680e-14  3.9590840065502578e-14  2.3843009685972084e-14  1.1611418648509058e-14  4.7622087660206992e-15  1.5375662954468395e-15  3.2217423492097950e-16  5.2946699644614519e-18  2.5160366029951110e-13  1.6935499921995368e-13  1.8998795136180234e-13  1.7704406576375040e-13  4.9259337417998148e-14  -3.9754864045061593e-14  1.9142256410417934e-13  5.7811013300184790e-13  5.4345212236067466e-13  7.6875015139484862e-14  -1.6006364387568151e-13  2.9517228825055482e-14  2.1042237337090132e-13  1.9279749584283507e-13  1.1892924794887486e-13  6.4215563530964441e-14  3.1846177451610542e-14  1.4894175356912660e-14  6.4893029519925516e-15  2.5803739058214904e-15  1.0709674957066630e-15  8.7904227855479986e-13  5.9535016965854237e-13  5.5390669261025914e-13  5.1798986237157296e-13  3.6643572935295104e-13  2.8039002392822504e-13  5.7811013300184648e-13  1.0724916764146375e-12  1.0955767401770820e-12  5.5800999798719751e-13  1.3602063226217695e-13  1.1876035178432435e-13  1.5671770187631811e-13  8.4257717246155563e-14  1.7543307582762762e-14  -5.8136986231057857e-15  -7.5647996752529729e-15  -3.6764908418175313e-15  -7.6487614259961521e-16  3.5317716649946569e-16  4.5822025825085638e-16  6.7266935313240800e-13  4.7786742145888523e-13  4.0884593882658061e-13  3.4506651980764470e-13  1.8543989431796082e-13  1.4647943421060113e-13  5.4345212236067749e-13  1.0955767401770854e-12  1.0215091195291672e-12  2.3519490249612063e-13  -4.4471933600722331e-13  -5.7823249090013063e-13  -4.7952645755525037e-13  -3.8743891965724860e-13  -2.7958779175937164e-13  -1.7087462364875635e-13  -9.1035503134602760e-14  -4.2986688184692872e-14  -1.8141729431569333e-14  -6.8283428484210416e-15  -2.7191099618761969e-15  -3.4456944631015115e-13  -1.8716211322424210e-13  -2.0753547809950271e-13  -2.8107025695884292e-13  -4.2146223606953944e-13  -3.8646836239767985e-13  7.6875015139491842e-14  5.5800999798720256e-13  2.3519490249611840e-13  -8.2153442609252461e-13  -1.5682525193554596e-12  -1.4940463099288702e-12  -1.0427803874979566e-12  -6.3400219862636944e-13  -3.3620998484141357e-13  -1.5277859406920748e-13  -6.1579244361773112e-14  -2.3156440963488112e-14  -8.7354032732748536e-15  -3.4746613791141408e-15  -1.5316134267070380e-15  -9.2319697768154568e-13  -5.6938812635844745e-13  -5.3989472847556053e-13  -6.0640352481688424e-13  -7.0813278248634060e-13  -6.0930586068648122e-13  -1.6006364387567545e-13  1.3602063226217834e-13  -4.4471933600722745e-13  -1.5682525193554667e-12  -2.0420833274272812e-12  -1.5020649923265345e-12  -6.7580118727185081e-13  -1.3657332611561721e-13  9.2088985850265814e-14  1.3247098957252933e-13  9.7005407325961688e-14  5.3770092390358047e-14  2.4786497124439968e-14  9.9808352683351989e-15  4.3284941894672454e-15  -6.1221367189252253e-13  -3.7220456115022524e-13  -3.4437407088029048e-13  -3.9829456214633295e-13  -4.5928459316277504e-13  -3.3269194560693432e-13  2.9517228825057293e-14  1.1876035178432233e-13  -5.7823249090013537e-13  -1.4940463099288752e-12  -1.5020649923265351e-12  -5.8106087600318374e-13  2.8530484375744379e-13  5.7388657404791363e-13  4.8045689228288268e-13  2.8692205442963001e-13  1.3507725129966621e-13  5.2521206664963892e-14  1.7314290636979346e-14  5.0093192418658904e-15  1.3797015593445371e-15  -1.6742547978317105e-13  -9.9075231919837715e-14  -8.7466175052344398e-14  -1.2548048284994124e-13  -1.5531948843241700e-13  -3.7100629713095102e-14  2.1042237337090018e-13  1.5671770187631561e-13  -4.7952645755525350e-13  -1.0427803874979578e-12  -6.7580118727185031e-13  2.8530484375744743e-13  8.2280002291202206e-13  6.9164050589255272e-13  3.4052597700937343e-13  8.9810718326811525e-14  -1.3199436672679311e-14  -3.0622436986636377e-14  -2.1060461213250686e-14  -1.0511569265608371e-14  -5.2297958259771903e-15  -2.2826987752939021e-14  -1.6045862541418301e-14  -9.7285399923292311e-15  -3.2708301984252951e-14  -4.4497361795500427e-14  4.5393215883367481e-14  1.9279749584283416e-13  8.4257717246154478e-14  -3.8743891965724900e-13  -6.3400219862636924e-13  -1.3657332611561602e-13  5.7388657404791454e-13  6.9164050589255221e-13  3.1095268375645302e-13  -2.1841062111006168e-14  -1.2308376457408765e-13  -9.3678463041308863e-14  -4.3861320616085124e-14  -1.4073355091238812e-14  -2.6197532217666140e-15  4.9253336511387880e-16  -5.8586140923511084e-15  -3.7235609877358824e-15  -1.1947502868292358e-15  -1.4664148474742872e-14  -1.8867634388507804e-14  3.9590840065501795e-14  1.1892924794887471e-13  1.7543307582762762e-14  -2.7958779175937154e-13  -3.3620998484141302e-13  9.2088985850266269e-14  4.8045689228288298e-13  3.4052597700937333e-13  -2.1841062111005770e-14  -1.6533325416673778e-13  -1.0918518781354700e-13  -2.8229432290991459e-14  8.3560484916677293e-15  1.2584560087926423e-14  7.5469817394999465e-15  3.7931124516615803e-15  -7.8274846357721306e-16  -2.7682931624666956e-16  -4.0077192736158967e-16  -7.8969581083554617e-15  -9.6323416688317178e-15  2.3843009685971993e-14  6.4215563530964630e-14  -5.8136986231057920e-15  -1.7087462364875630e-13  -1.5277859406920728e-13  1.3247098957252935e-13  2.8692205442963006e-13  8.9810718326811424e-14  -1.2308376457408735e-13  -1.0918518781354700e-13  -1.5085173939268281e-14  2.4729890149084876e-14  1.8799768247229191e-14  5.7018325569366103e-15  -5.1312059176426300e-16  -1.9740902976984617e-15  -8.6069998695802965e-16  -7.2345534881308380e-16  -7.3976260763802506e-16  -4.3586267260846469e-15  -5.4489307520578445e-15  1.1611418648509118e-14  3.1846177451610636e-14  -7.5647996752530124e-15  -9.1035503134602735e-14  -6.1579244361773086e-14  9.7005407325961651e-14  1.3507725129966611e-13  -1.3199436672679264e-14  -9.3678463041308736e-14  -2.8229432290991532e-14  2.4729890149084866e-14  1.8395328491260325e-14  1.4451430187570659e-15  -3.8248908450928714e-15  -2.4218243611309413e-15  -6.5714366909533490e-16  -9.6203615284193240e-16  -4.7160123886620324e-16  -3.3174604081592297e-16  -2.0018640647561716e-15  -2.9175206137234239e-15  4.7622087660207789e-15  1.4894175356912657e-14  -3.6764908418175842e-15  -4.2986688184692866e-14  -2.3156440963488096e-14  5.3770092390358059e-14  5.2521206664963898e-14  -3.0622436986636377e-14  -4.3861320616085092e-14  8.3560484916676788e-15  1.8799768247229188e-14  1.4451430187570742e-15  -4.4143983149679379e-15  -1.7507350253367754e-15  3.1668487808202109e-16  6.4729764312459346e-16  -4.4002749051819290e-16  -1.3575180289274674e-16  -8.6295424200519920e-17  -7.9491537168279034e-16  -1.4542925530251174e-15  1.5375662954468855e-15  6.4893029519925280e-15  -7.6487614259964321e-16  -1.8141729431569311e-14  -8.7354032732748473e-15  2.4786497124439962e-14  1.7314290636979368e-14  -2.1060461213250720e-14  -1.4073355091238820e-14  1.2584560087926390e-14  5.7018325569366111e-15  -3.8248908450928714e-15  -1.7507350253367756e-15  5.0566979667426855e-16  4.6286771259738141e-16  4.3968518717053561e-17  -1.1566385673795579e-16  -2.2107234780058633e-17  -4.6508772388225955e-18  -2.5052566312149405e-16  -6.3270207193412298e-16  3.2217423492099681e-16  2.5803739058214738e-15  3.5317716649945268e-16  -6.8283428484210266e-15  -3.4746613791141401e-15  9.9808352683351895e-15  5.0093192418658983e-15  -1.0511569265608371e-14  -2.6197532217666235e-15  7.5469817394999355e-15  -5.1312059176426004e-16  -2.4218243611309394e-15  3.1668487808202124e-16  4.6286771259738112e-16  -1.1325087618451260e-17  -1.0516175598726267e-16  -2.9402083490674712e-17  -2.6808593659187555e-18  1.3546942994755468e-17  -6.6773857430196133e-17  -2.7490331302154581e-16  5.2946699644677874e-18  1.0709674957066537e-15  4.5822025825085214e-16  -2.7191099618761890e-15  -1.5316134267070392e-15  4.3284941894672431e-15  1.3797015593445412e-15  -5.2297958259771934e-15  4.9253336511388028e-16  3.7931124516615771e-15  -1.9740902976984554e-15  -6.5714366909533490e-16  6.4729764312459277e-16  4.3968518717053155e-17  -1.0516175598726272e-16  2.5147318667295012e-18  -9.3629055661804989e-13  -6.3431272775704439e-13  -5.7815819964822660e-13  -6.8447446436364101e-13  -6.9042135926663659e-13  -2.2779060135224161e-13  2.8939062035211934e-13  -4.4824584476320573e-13  -2.3160706329422193e-12  -2.7844971716240248e-12  -7.6747651559882202e-13  1.2153495838782828e-12  1.2523444439513177e-12  4.9421965792192376e-13  1.4477724752870797e-13  5.7012571472507992e-14  1.7405318871830647e-14  4.7991664442624325e-15  1.8819681302624087e-15  6.5927669454031827e-16  1.5000878092514897e-16  -6.3431272775704267e-13  -3.7639208176394226e-13  -3.3008611845600251e-13  -3.9243329015354467e-13  -4.0703822274937770e-13  -1.5146567140556474e-13  1.7261630470465944e-13  -2.0126149789952193e-13  -1.2842747240527407e-12  -1.6330841455825277e-12  -5.3421887731085857e-13  5.9754954765831263e-13  6.4131111598452393e-13  2.5131113953553166e-13  8.2010245192211156e-14  3.1164276891127233e-14  8.4754667048569198e-15  3.0414339104833803e-15  1.1588070676287341e-15  2.3824662106733432e-16  -4.3157439356179073e-17  -5.7815819964822529e-13  -3.3008611845600367e-13  -2.8969436142659093e-13  -3.4285859512066600e-13  -3.4493462695109699e-13  -1.1392275085651892e-13  1.4543093516073210e-13  -2.2537038513145139e-13  -1.1720427907622793e-12  -1.4151647652971455e-12  -3.9921869996653760e-13  5.9154260201461303e-13  6.0071243532634925e-13  2.3128747409011024e-13  6.6760263756205681e-14  2.0788761834226435e-14  5.7218589728515228e-15  2.2634909394527923e-15  6.7252399884055995e-16  8.8837293619555722e-17  -3.0781198983662786e-17  -6.8447446436365151e-13  -3.9243329015355214e-13  -3.4285859512066828e-13  -3.9178169947293807e-13  -3.9000332262238237e-13  -1.6368536842768308e-13  7.5393438896559888e-14  -3.1266945943821632e-13  -1.2440307930848944e-12  -1.4510330044176328e-12  -4.1540988096514066e-13  5.8070551620273203e-13  5.9945661667761612e-13  2.3507551961665065e-13  6.7781788251952463e-14  2.1212273708420143e-14  6.4210055839959510e-15  2.1489147122111467e-15  3.9968762173798312e-16  -5.3737539927218372e-17  -8.2634977714748809e-17  -6.9042135926665638e-13  -4.0703822274938472e-13  -3.4493462695109255e-13  -3.9000332262237637e-13  -3.9194761169629386e-13  -1.7647958116637570e-13  5.1975536568203464e-14  -3.3159197157084011e-13  -1.2338879640856444e-12  -1.3988047316745217e-12  -3.3248552879756450e-13  6.7153389647708048e-13  6.8009292457377970e-13  2.9498445055467874e-13  1.0576383092014389e-13  4.3120979426739580e-14  1.7816697266880976e-14  7.2192796233866273e-15  2.4099898087508577e-15  6.1102363299007861e-16  7.5099592807386729e-17  -2.2779060135225474e-13  -1.5146567140556022e-13  -1.1392275085650403e-13  -1.6368536842767326e-13  -1.7647958116637570e-13  3.0012793897193910e-14  2.7137190338848158e-13  -6.8538309100340935e-14  -9.1716993811395298e-13  -1.0573632491551155e-12  -1.8924969789710166e-14  9.1544462747868672e-13  8.4338084498682754e-13  3.9138736134902291e-13  1.5789852071801572e-13  7.0489621848007648e-14  3.2248556985486363e-14  1.4841746273796541e-14  6.3504067132954431e-15  2.4625068742119808e-15  7.8416620978941010e-16  2.8939062035212267e-13  1.7261630470467360e-13  1.4543093516074752e-13  7.5393438896561289e-14  5.1975536568194844e-14  2.7137190338847654e-13  5.6289698472054302e-13  2.8320831044425584e-13  -5.5763704945113633e-13  -7.8269878492257659e-13  1.0456006809593046e-13  8.9200115497576108e-13  7.3264251517966597e-13  2.6129397729674453e-13  5.1375875070963752e-14  7.0104500374559434e-16  -6.0103315028150783e-15  -2.7975485093824285e-15  -2.6650450849048179e-16  6.2908465755808039e-16  5.0667598556159118e-16  -4.4824584476319458e-13  -2.0126149789951049e-13  -2.2537038513144874e-13  -3.1266945943822773e-13  -3.3159197157085273e-13  -6.8538309100344280e-14  2.8320831044425907e-13  2.1413798710837783e-15  -9.6620140031541760e-13  -1.4064591343505279e-12  -6.9371884933927852e-13  6.6216914360802115e-14  2.9129496849644582e-14  -2.4699436158225678e-13  -2.6993882554519461e-13  -1.8251066415867265e-13  -1.0268028949345132e-13  -5.0629401717895788e-14  -2.2346015100757296e-14  -8.6578938596286816e-15  -2.8292503628553486e-15  -2.3160706329422124e-12  -1.2842747240527395e-12  -1.1720427907622894e-12  -1.2440307930849102e-12  -1.2338879640856492e-12  -9.1716993811394652e-13  -5.5763704945112845e-13  -9.6620140031541922e-13  -2.1724792443536627e-12  -2.7829064594366613e-12  -1.9931813424974385e-12  -9.0449253914250985e-13  -5.2287521665798042e-13  -4.6284028614443721e-13  -3.0032590696801433e-13  -1.4930056450714078e-13  -6.7698669851066385e-14  -3.0978453467950817e-14  -1.5308659089202272e-14  -7.6929657325804074e-15  -3.3943022758869932e-15  -2.7844971716240288e-12  -1.6330841455825329e-12  -1.4151647652971554e-12  -1.4510330044176381e-12  -1.3988047316745143e-12  -1.0573632491551046e-12  -7.8269878492257144e-13  -1.4064591343505330e-12  -2.7829064594366702e-12  -3.2648329934363223e-12  -2.0016493732312666e-12  -3.4297375684482440e-13  3.9518682349434624e-13  4.8470933020891008e-13  4.5078201028283029e-13  3.4388097043602683e-13  2.1241796322284852e-13  1.1038785170893133e-13  4.8868778039069419e-14  1.8447837596873389e-14  5.9117925574258136e-15  -7.6747651559883858e-13  -5.3421887731086584e-13  -3.9921869996653932e-13  -4.1540988096513526e-13  -3.3248552879755501e-13  -1.8924969789704764e-14  1.0456006809592508e-13  -6.9371884933929144e-13  -1.9931813424974498e-12  -2.0016493732312698e-12  -1.2257906347336674e-13  1.8352827772537855e-12  2.3419090455059592e-12  1.8510491386130408e-12  1.2177587953669811e-12  6.9342265206424861e-13  3.4413108297264789e-13  1.5346965129019277e-13  6.3049774199094189e-14  2.4317717450217530e-14  8.5761618588267475e-15  1.2153495838782679e-12  5.9754954765830920e-13  5.9154260201461980e-13  5.8070551620273870e-13  6.7153389647708290e-13  9.1544462747868208e-13  8.9200115497574997e-13  6.6216914360789947e-14  -9.0449253914251651e-13  -3.4297375684481965e-13  1.8352827772537984e-12  3.4362878104699223e-12  3.1046803460491558e-12  1.8108576116434838e-12  7.5802319587620128e-13  1.8758073967740185e-13  -2.6077624082729862e-14  -6.1136579169718712e-14  -4.2118964873472168e-14  -2.0650569087188461e-14  -8.4307968624905272e-15  1.2523444439513125e-12  6.4131111598452626e-13  6.0071243532635440e-13  5.9945661667761794e-13  6.8009292457377545e-13  8.4338084498682007e-13  7.3264251517965870e-13  2.9129496849639843e-14  -5.2287521665797931e-13  3.9518682349435518e-13  2.3419090455059656e-12  3.1046803460491607e-12  1.9196447972003535e-12  3.1448949575718432e-13  -4.8360024692310160e-13  -5.7761176253473442e-13  -3.9427029321092599e-13  -2.0269640450317583e-13  -8.5841527787154870e-14  -3.1385505447127883e-14  -1.0143068805590523e-14  4.9421965792192840e-13  2.5131113953553671e-13  2.3128747409011291e-13  2.3507551961664808e-13  2.9498445055467430e-13  3.9138736134901993e-13  2.6129397729674357e-13  -2.4699436158225637e-13  -4.6284028614443378e-13  4.8470933020891412e-13  1.8510491386130424e-12  1.8108576116434834e-12  3.1448949575718083e-13  -8.9366312215665675e-13  -1.0002033816262333e-12  -5.8519099898104973e-13  -2.1180850873003288e-13  -3.0123130617467539e-14  2.0009488667025117e-14  1.9978969378088716e-14  1.1132333492048177e-14  1.4477724752871529e-13  8.2010245192214728e-14  6.6760263756205176e-14  6.7781788251948853e-14  1.0576383092014137e-13  1.5789852071801612e-13  5.1375875070964819e-14  -2.6993882554519385e-13  -3.0032590696801252e-13  4.5078201028283150e-13  1.2177587953669803e-12  7.5802319587619947e-13  -4.8360024692310241e-13  -1.0002033816262315e-12  -5.8347095148866820e-13  -7.7893098465793960e-14  1.2412767447858134e-13  1.1734226099811054e-13  6.0620625314864231e-14  2.1956974233834015e-14  5.5334097627481825e-15  5.7012571472513495e-14  3.1164276891128634e-14  2.0788761834224757e-14  2.1212273708417742e-14  4.3120979426739195e-14  7.0489621848008910e-14  7.0104500374637374e-16  -1.8251066415867260e-13  -1.4930056450714048e-13  3.4388097043602703e-13  6.9342265206424750e-13  1.8758073967740099e-13  -5.7761176253473473e-13  -5.8519099898104932e-13  -7.7893098465794187e-14  1.8654755392337590e-13  1.4477621910803936e-13  4.2149467265237664e-14  -8.2378757020241875e-15  -1.5565323831302452e-14  -9.7603174053968945e-15  1.7405318871833613e-14  8.4754667048571249e-15  5.7218589728501809e-15  6.4210055839949523e-15  1.7816697266881377e-14  3.2248556985487177e-14  -6.0103315028150041e-15  -1.0268028949345148e-13  -6.7698669851066170e-14  2.1241796322284850e-13  3.4413108297264764e-13  -2.6077624082730102e-14  -3.9427029321092625e-13  -2.1180850873003296e-13  1.2412767447858093e-13  1.4477621910803936e-13  2.5013631077858572e-14  -2.9014110417812844e-14  -2.2127341495415369e-14  -5.9840459773523680e-15  1.2953725616836456e-15  4.7991664442636458e-15  3.0414339104832158e-15  2.2634909394520819e-15  2.1489147122108868e-15  7.2192796233870107e-15  1.4841746273796850e-14  -2.7975485093825682e-15  -5.0629401717895832e-14  -3.0978453467950609e-14  1.1038785170893142e-13  1.5346965129019277e-13  -6.1136579169718737e-14  -2.0269640450317598e-13  -3.0123130617467684e-1