<?xml version="1.0"?>
<VTKFile type="UnstructuredGrid"  version="0.1"  >
<UnstructuredGrid>
<Piece  NumberOfPoints="9261" NumberOfCells="48000">
<Points>
<DataArray  type="Float64"  NumberOfComponents="3"  format="ascii">-2 -2 -2  -1.8 -2 -2  -1.6 -2 -2  -1.4 -2 -2  -1.2 -2 -2  -1 -2 -2  -0.8 -2 -2  -0.6000000000000001 -2 -2  -0.3999999999999999 -2 -2  -0.2 -2 -2  0 -2 -2  0.2000000000000002 -2 -2  0.3999999999999999 -2 -2  0.6000000000000001 -2 -2  0.7999999999999998 -2 -2  1 -2 -2  1.2 -2 -2  1.4 -2 -2  1.6 -2 -2  1.8 -2 -2  2 -2 -2  -2 -1.8 -2  -1.8 -1.8 -2  -1.6 -1.8 -2  -1.4 -1.8 -2  -1.2 -1.8 -2  -1 -1.8 -2  -0.8 -1.8 -2  -0.6000000000000001 -1.8 -2  -0.3999999999999999 -1.8 -2  -0.2 -1.8 -2  0 -1.8 -2  0.2000000000000002 -1.8 -2  0.3999999999999999 -1.8 -2  0.6000000000000001 -1.8 -2  0.7999999999999998 -1.8 -2  1 -1.8 -2  1.2 -1.8 -2  1.4 -1.8 -2  1.6 -1.8 -2  1.8 -1.8 -2  2 -1.8 -2  -2 -1.6 -2  -1.8 -1.6 -2  -1.6 -1.6 -2  -1.4 -1.6 -2  -1.2 -1.6 -2  -1 -1.6 -2  -0.8 -1.6 -2  -0.6000000000000001 -1.6 -2  -0.3999999999999999 -1.6 -2  -0.2 -1.6 -2  0 -1.6 -2  0.2000000000000002 -1.6 -2  0.3999999999999999 -1.6 -2  0.6000000000000001 -1.6 -2  0.7999999999999998 -1.6 -2  1 -1.6 -2  1.2 -1.6 -2  1.4 -1.6 -2  1.6 -1.6 -2  1.8 -1.6 -2  2 -1.6 -2  -2 -1.4 -2  -1.8 -1.4 -2  -1.6 -1.4 -2  -1.4 -1.4 -2  -1.2 -1.4 -2  -1 -1.4 -2  -0.8 -1.4 -2  -0.6000000000000001 -1.4 -2  -0.3999999999999999 -1.4 -2  -0.2 -1.4 -2  0 -1.4 -2  0.2000000000000002 -1.4 -2  0.3999999999999999 -1.4 -2  0.6000000000000001 -1.4 -2  0.7999999999999998 -1.4 -2  1 -1.4 -2  1.2 -1.4 -2  1.4 -1.4 -2  1.6 -1.4 -2  1.8 -1.4 -2  2 -1.4 -2  -2 -1.2 -2  -1.8 -1.2 -2  -1.6 -1.2 -2  -1.4 -1.2 -2  -1.2 -1.2 -2  -1 -1.2 -2  -0.8 -1.2 -2  -0.6000000000000001 -1.2 -2  -0.3999999999999999 -1.2 -2  -0.2 -1.2 -2  0 -1.2 -2  0.2000000000000002 -1.2 -2  0.3999999999999999 -1.2 -2  0.6000000000000001 -1.2 -2  0.7999999999999998 -1.2 -2  1 -1.2 -2  1.2 -1.2 -2  1.4 -1.2 -2  1.6 -1.2 -2  1.8 -1.2 -2  2 -1.2 -2  -2 -1 -2  -1.8 -1 -2  -1.6 -1 -2  -1.4 -1 -2  -1.2 -1 -2  -1 -1 -2  -0.8 -1 -2  -0.6000000000000001 -1 -2  -0.3999999999999999 -1 -2  -0.2 -1 -2  0 -1 -2  0.2000000000000002 -1 -2  0.3999999999999999 -1 -2  0.6000000000000001 -1 -2  0.7999999999999998 -1 -2  1 -1 -2  1.2 -1 -2  1.4 -1 -2  1.6 -1 -2  1.8 -1 -2  2 -1 -2  -2 -0.8 -2  -1.8 -0.8 -2  -1.6 -0.8 -2  -1.4 -0.8 -2  -1.2 -0.8 -2  -1 -0.8 -2  -0.8 -0.8 -2  -0.6000000000000001 -0.8 -2  -0.3999999999999999 -0.8 -2  -0.2 -0.8 -2  0 -0.8 -2  0.2000000000000002 -0.8 -2  0.3999999999999999 -0.8 -2  0.6000000000000001 -0.8 -2  0.7999999999999998 -0.8 -2  1 -0.8 -2  1.2 -0.8 -2  1.4 -0.8 -2  1.6 -0.8 -2  1.8 -0.8 -2  2 -0.8 -2  -2 -0.6000000000000001 -2  -1.8 -0.6000000000000001 -2  -1.6 -0.6000000000000001 -2  -1.4 -0.6000000000000001 -2  -1.2 -0.6000000000000001 -2  -1 -0.6000000000000001 -2  -0.8 -0.6000000000000001 -2  -0.6000000000000001 -0.6000000000000001 -2  -0.3999999999999999 -0.6000000000000001 -2  -0.2 -0.6000000000000001 -2  0 -0.6000000000000001 -2  0.2000000000000002 -0.6000000000000001 -2  0.3999999999999999 -0.6000000000000001 -2  0.6000000000000001 -0.6000000000000001 -2  0.7999999999999998 -0.6000000000000001 -2  1 -0.6000000000000001 -2  1.2 -0.6000000000000001 -2  1.4 -0.6000000000000001 -2  1.6 -0.6000000000000001 -2  1.8 -0.6000000000000001 -2  2 -0.6000000000000001 -2  -2 -0.3999999999999999 -2  -1.8 -0.3999999999999999 -2  -1.6 -0.3999999999999999 -2  -1.4 -0.3999999999999999 -2  -1.2 -0.3999999999999999 -2  -1 -0.3999999999999999 -2  -0.8 -0.3999999999999999 -2  -0.6000000000000001 -0.3999999999999999 -2  -0.3999999999999999 -0.3999999999999999 -2  -0.2 -0.3999999999999999 -2  0 -0.3999999999999999 -2  0.2000000000000002 -0.3999999999999999 -2  0.3999999999999999 -0.3999999999999999 -2  0.6000000000000001 -0.3999999999999999 -2  0.7999999999999998 -0.3999999999999999 -2  1 -0.3999999999999999 -2  1.2 -0.3999999999999999 -2  1.4 -0.3999999999999999 -2  1.6 -0.3999999999999999 -2  1.8 -0.3999999999999999 -2  2 -0.3999999999999999 -2  -2 -0.2 -2  -1.8 -0.2 -2  -1.6 -0.2 -2  -1.4 -0.2 -2  -1.2 -0.2 -2  -1 -0.2 -2  -0.8 -0.2 -2  -0.6000000000000001 -0.2 -2  -0.3999999999999999 -0.2 -2  -0.2 -0.2 -2  0 -0.2 -2  0.2000000000000002 -0.2 -2  0.3999999999999999 -0.2 -2  0.6000000000000001 -0.2 -2  0.7999999999999998 -0.2 -2  1 -0.2 -2  1.2 -0.2 -2  1.4 -0.2 -2  1.6 -0.2 -2  1.8 -0.2 -2  2 -0.2 -2  -2 0 -2  -1.8 0 -2  -1.6 0 -2  -1.4 0 -2  -1.2 0 -2  -1 0 -2  -0.8 0 -2  -0.6000000000000001 0 -2  -0.3999999999999999 0 -2  -0.2 0 -2  0 0 -2  0.2000000000000002 0 -2  0.3999999999999999 0 -2  0.6000000000000001 0 -2  0.7999999999999998 0 -2  1 0 -2  1.2 0 -2  1.4 0 -2  1.6 0 -2  1.8 0 -2  2 0 -2  -2 0.2000000000000002 -2  -1.8 0.2000000000000002 -2  -1.6 0.2000000000000002 -2  -1.4 0.2000000000000002 -2  -1.2 0.2000000000000002 -2  -1 0.2000000000000002 -2  -0.8 0.2000000000000002 -2  -0.6000000000000001 0.2000000000000002 -2  -0.3999999999999999 0.2000000000000002 -2  -0.2 0.2000000000000002 -2  0 0.2000000000000002 -2  0.2000000000000002 0.2000000000000002 -2  0.3999999999999999 0.2000000000000002 -2  0.6000000000000001 0.2000000000000002 -2  0.7999999999999998 0.2000000000000002 -2  1 0.2000000000000002 -2  1.2 0.2000000000000002 -2  1.4 0.2000000000000002 -2  1.6 0.2000000000000002 -2  1.8 0.2000000000000002 -2  2 0.2000000000000002 -2  -2 0.3999999999999999 -2  -1.8 0.3999999999999999 -2  -1.6 0.3999999999999999 -2  -1.4 0.3999999999999999 -2  -1.2 0.3999999999999999 -2  -1 0.3999999999999999 -2  -0.8 0.3999999999999999 -2  -0.6000000000000001 0.3999999999999999 -2  -0.3999999999999999 0.3999999999999999 -2  -0.2 0.3999999999999999 -2  0 0.3999999999999999 -2  0.2000000000000002 0.3999999999999999 -2  0.3999999999999999 0.3999999999999999 -2  0.6000000000000001 0.3999999999999999 -2  0.7999999999999998 0.3999999999999999 -2  1 0.3999999999999999 -2  1.2 0.3999999999999999 -2  1.4 0.3999999999999999 -2  1.6 0.3999999999999999 -2  1.8 0.3999999999999999 -2  2 0.3999999999999999 -2  -2 0.6000000000000001 -2  -1.8 0.6000000000000001 -2  -1.6 0.6000000000000001 -2  -1.4 0.6000000000000001 -2  -1.2 0.6000000000000001 -2  -1 0.6000000000000001 -2  -0.8 0.6000000000000001 -2  -0.6000000000000001 0.6000000000000001 -2  -0.3999999999999999 0.6000000000000001 -2  -0.2 0.6000000000000001 -2  0 0.6000000000000001 -2  0.2000000000000002 0.6000000000000001 -2  0.3999999999999999 0.6000000000000001 -2  0.6000000000000001 0.6000000000000001 -2  0.7999999999999998 0.6000000000000001 -2  1 0.6000000000000001 -2  1.2 0.6000000000000001 -2  1.4 0.6000000000000001 -2  1.6 0.6000000000000001 -2  1.8 0.6000000000000001 -2  2 0.6000000000000001 -2  -2 0.7999999999999998 -2  -1.8 0.7999999999999998 -2  -1.6 0.7999999999999998 -2  -1.4 0.7999999999999998 -2  -1.2 0.7999999999999998 -2  -1 0.7999999999999998 -2  -0.8 0.7999999999999998 -2  -0.6000000000000001 0.7999999999999998 -2  -0.3999999999999999 0.7999999999999998 -2  -0.2 0.7999999999999998 -2  0 0.7999999999999998 -2  0.2000000000000002 0.7999999999999998 -2  0.3999999999999999 0.7999999999999998 -2  0.6000000000000001 0.7999999999999998 -2  0.7999999999999998 0.7999999999999998 -2  1 0.7999999999999998 -2  1.2 0.7999999999999998 -2  1.4 0.7999999999999998 -2  1.6 0.7999999999999998 -2  1.8 0.7999999999999998 -2  2 0.7999999999999998 -2  -2 1 -2  -1.8 1 -2  -1.6 1 -2  -1.4 1 -2  -1.2 1 -2  -1 1 -2  -0.8 1 -2  -0.6000000000000001 1 -2  -0.3999999999999999 1 -2  -0.2 1 -2  0 1 -2  0.2000000000000002 1 -2  0.3999999999999999 1 -2  0.6000000000000001 1 -2  0.7999999999999998 1 -2  1 1 -2  1.2 1 -2  1.4 1 -2  1.6 1 -2  1.8 1 -2  2 1 -2  -2 1.2 -2  -1.8 1.2 -2  -1.6 1.2 -2  -1.4 1.2 -2  -1.2 1.2 -2  -1 1.2 -2  -0.8 1.2 -2  -0.6000000000000001 1.2 -2  -0.3999999999999999 1.2 -2  -0.2 1.2 -2  0 1.2 -2  0.2000000000000002 1.2 -2  0.3999999999999999 1.2 -2  0.6000000000000001 1.2 -2  0.7999999999999998 1.2 -2  1 1.2 -2  1.2 1.2 -2  1.4 1.2 -2  1.6 1.2 -2  1.8 1.2 -2  2 1.2 -2  -2 1.4 -2  -1.8 1.4 -2  -1.6 1.4 -2  -1.4 1.4 -2  -1.2 1.4 -2  -1 1.4 -2  -0.8 1.4 -2  -0.6000000000000001 1.4 -2  -0.3999999999999999 1.4 -2  -0.2 1.4 -2  0 1.4 -2  0.2000000000000002 1.4 -2  0.3999999999999999 1.4 -2  0.6000000000000001 1.4 -2  0.7999999999999998 1.4 -2  1 1.4 -2  1.2 1.4 -2  1.4 1.4 -2  1.6 1.4 -2  1.8 1.4 -2  2 1.4 -2  -2 1.6 -2  -1.8 1.6 -2  -1.6 1.6 -2  -1.4 1.6 -2  -1.2 1.6 -2  -1 1.6 -2  -0.8 1.6 -2  -0.6000000000000001 1.6 -2  -0.3999999999999999 1.6 -2  -0.2 1.6 -2  0 1.6 -2  0.2000000000000002 1.6 -2  0.3999999999999999 1.6 -2  0.6000000000000001 1.6 -2  0.7999999999999998 1.6 -2  1 1.6 -2  1.2 1.6 -2  1.4 1.6 -2  1.6 1.6 -2  1.8 1.6 -2  2 1.6 -2  -2 1.8 -2  -1.8 1.8 -2  -1.6 1.8 -2  -1.4 1.8 -2  -1.2 1.8 -2  -1 1.8 -2  -0.8 1.8 -2  -0.6000000000000001 1.8 -2  -0.3999999999999999 1.8 -2  -0.2 1.8 -2  0 1.8 -2  0.2000000000000002 1.8 -2  0.3999999999999999 1.8 -2  0.6000000000000001 1.8 -2  0.7999999999999998 1.8 -2  1 1.8 -2  1.2 1.8 -2  1.4 1.8 -2  1.6 1.8 -2  1.8 1.8 -2  2 1.8 -2  -2 2 -2  -1.8 2 -2  -1.6 2 -2  -1.4 2 -2  -1.2 2 -2  -1 2 -2  -0.8 2 -2  -0.6000000000000001 2 -2  -0.3999999999999999 2 -2  -0.2 2 -2  0 2 -2  0.2000000000000002 2 -2  0.3999999999999999 2 -2  0.6000000000000001 2 -2  0.7999999999999998 2 -2  1 2 -2  1.2 2 -2  1.4 2 -2  1.6 2 -2  1.8 2 -2  2 2 -2  -2 -2 -1.8  -1.8 -2 -1.8  -1.6 -2 -1.8  -1.4 -2 -1.8  -1.2 -2 -1.8  -1 -2 -1.8  -0.8 -2 -1.8  -0.6000000000000001 -2 -1.8  -0.3999999999999999 -2 -1.8  -0.2 -2 -1.8  0 -2 -1.8  0.2000000000000002 -2 -1.8  0.3999999999999999 -2 -1.8  0.6000000000000001 -2 -1.8  0.7999999999999998 -2 -1.8  1 -2 -1.8  1.2 -2 -1.8  1.4 -2 -1.8  1.6 -2 -1.8  1.8 -2 -1.8  2 -2 -1.8  -2 -1.8 -1.8  -1.8 -1.8 -1.8  -1.6 -1.8 -1.8  -1.4 -1.8 -1.8  -1.2 -1.8 -1.8  -1 -1.8 -1.8  -0.8 -1.8 -1.8  -0.6000000000000001 -1.8 -1.8  -0.3999999999999999 -1.8 -1.8  -0.2 -1.8 -1.8  0 -1.8 -1.8  0.2000000000000002 -1.8 -1.8  0.3999999999999999 -1.8 -1.8  0.6000000000000001 -1.8 -1.8  0.7999999999999998 -1.8 -1.8  1 -1.8 -1.8  1.2 -1.8 -1.
[...]
<PointData  Scalars="uA"> 
<DataArray  type="Float64"  Name="uA"  format="ascii">2.3244009761090718e-14  1.7057407073271299e-14  1.5478217606771030e-14  1.4374650157504686e-14  1.4089796576265040e-14  2.1054458954160764e-14  2.7620644278053834e-14  1.6380105115669824e-14  -8.8709803533634753e-15  -2.2720537670412163e-14  -1.6028886008826556e-14  -4.3151494953846841e-15  3.6226002548322048e-16  2.5725333844680316e-16  -1.0018409892987570e-16  -3.6892742263842137e-17  2.7914591343776867e-18  1.2581268940566878e-19  8.6950659931790553e-19  2.0670914560571375e-19  -4.5215324656665874e-19  1.7057407073271220e-14  1.1132930317981988e-14  9.6878118196297785e-15  9.3502178817948253e-15  9.1439971526634035e-15  1.3315753825424185e-14  1.7178932046549441e-14  1.0553985415902193e-14  -4.1036919948860331e-15  -1.2036692135635154e-14  -8.3465324700101494e-15  -2.0693590933371585e-15  2.4926557775662430e-16  1.0512514894558217e-16  -6.6919425939987959e-17  -1.7550137905426554e-17  2.6067450744511374e-18  4.4334331221327980e-19  6.6749676801007172e-19  3.9036675704363200e-20  -2.5753669152897344e-19  1.5478217606770610e-14  9.6878118196295955e-15  8.2504762316488713e-15  7.8631654111138941e-15  7.7780578221874249e-15  1.2226630637862133e-14  1.5974636085832281e-14  8.2876117990960501e-15  -7.7396800076405103e-15  -1.5862948497528556e-14  -1.0833663759942971e-14  -2.9373472666600422e-15  1.9235595578658985e-16  1.6022588853122298e-16  -6.3073820484402908e-17  -2.3499406440808692e-17  1.6283651839159789e-18  -2.6247314712626204e-20  4.8989499693515061e-19  2.1311170808087421e-19  -1.5776346870293081e-19  1.4374650157503976e-14  9.3502178817945776e-15  7.8631654111138167e-15  7.5430816665547486e-15  7.4521526814350813e-15  1.1685221261309207e-14  1.5156247044476946e-14  7.4854301303626920e-15  -8.1252309347889232e-15  -1.5761885674325637e-14  -1.0534835273105580e-14  -2.7235518063283368e-15  2.6808069518734074e-16  1.7281461867404990e-16  -6.1085813855671036e-17  -2.2530541715414934e-17  1.5825274314574925e-18  -1.9837010570893406e-20  6.2414391345747803e-19  2.1370841723482350e-19  -2.2955153282961605e-19  1.4089796576264370e-14  9.1439971526632488e-15  7.7780578221875354e-15  7.4521526814352454e-15  7.1261628141515273e-15  1.1038588842703248e-14  1.4622224025726896e-14  7.7730069326648394e-15  -6.7756571385578233e-15  -1.3879475359042644e-14  -8.8974226964905902e-15  -1.7224238766834566e-15  7.1606967605187460e-16  3.2237220045579027e-16  -2.3054907887943684e-17  -1.4774684325973378e-17  2.9984601613561777e-18  1.8675623133045518e-19  5.9466424032152133e-19  1.8398096545731614e-19  -2.2970643693306179e-19  2.1054458954160496e-14  1.3315753825424357e-14  1.2226630637862401e-14  1.1685221261309339e-14  1.1038588842703229e-14  1.5161655438639515e-14  1.9919056017675733e-14  1.4377167106740592e-14  -2.3398672044057357e-16  -9.1684797769412876e-15  -6.6170925597128404e-15  -1.1358752670106590e-15  6.5997936719714589e-16  2.1001830893817297e-16  -6.6045379757510113e-17  -2.2173621157464307e-17  2.5054220389443413e-18  4.3596904955583950e-20  5.2940492235962525e-19  1.8594765176277905e-19  -2.1955525344811512e-19  2.7620644278053998e-14  1.7178932046549775e-14  1.5974636085832533e-14  1.5156247044476920e-14  1.4622224025726728e-14  1.9919056017675522e-14  2.6017222188282788e-14  1.9726221938607932e-14  1.5225142632515438e-15  -1.1581651765069178e-14  -1.0965111007600397e-14  -4.7811552552593694e-15  -1.2860152236731241e-15  -4.8385803680525720e-16  -2.2849432133898578e-16  -4.6249881887913514e-17  1.1068536219215808e-19  -1.1135851355562621e-19  5.6644210635744801e-19  1.8952005760015124e-19  -2.2523021797837231e-19  1.6380105115670052e-14  1.0553985415902333e-14  8.2876117990960248e-15  7.4854301303625248e-15  7.7730069326646943e-15  1.4377167106740557e-14  1.9726221938607960e-14  9.0961883526432586e-15  -1.4060057087398904e-14  -2.7840788224745189e-14  -2.2693821428544868e-14  -1.0441821193421703e-14  -2.9096308238478443e-15  -6.1615445099217940e-16  -1.4534870898017018e-16  -1.4562017113241821e-17  5.0824907778915578e-18  8.4119530147676728e-19  7.9103685435898706e-19  1.6829738201397836e-19  -2.3572849303141922e-19  -8.8709803533635005e-15  -4.1036919948861278e-15  -7.7396800076407122e-15  -8.1252309347890621e-15  -6.7756571385577823e-15  -2.3398672044045682e-16  1.5225142632516480e-15  -1.4060057087399031e-14  -3.7005741693930117e-14  -4.2712492499770225e-14  -2.6955292121592437e-14  -8.3738639617948684e-15  2.5775115405300057e-17  9.0111412262176680e-16  2.6608822025772685e-16  3.4036436454797789e-17  4.9746575521349915e-18  9.9711259285777235e-19  7.0851118690434911e-19  4.9343608203414219e-20  -2.3159092160203011e-19  -2.2720537670412324e-14  -1.2036692135635292e-14  -1.5862948497528641e-14  -1.5761885674325612e-14  -1.3879475359042501e-14  -9.1684797769411424e-15  -1.1581651765069057e-14  -2.7840788224745214e-14  -4.2712492499770465e-14  -3.6013718703531136e-14  -1.3516629595141697e-14  2.7873438078047738e-15  5.2327909110673787e-15  2.0811148942383811e-15  2.1187123312228916e-16  -6.2322767256633368e-17  -1.1359411055875034e-17  7.1142522142207766e-19  2.0595861795634059e-19  -4.7559699299382346e-20  -1.7075405387142363e-19  -1.6028886008826644e-14  -8.3465324700101336e-15  -1.0833663759942921e-14  -1.0534835273105460e-14  -8.8974226964904797e-15  -6.6170925597127528e-15  -1.0965111007600362e-14  -2.2693821428544887e-14  -2.6955292121592497e-14  -1.3516629595141734e-14  4.6967203320005389e-15  1.0616415276218821e-14  5.6712962746055036e-15  6.9321761430369199e-16  -4.9015152358433754e-16  -1.6998132302732027e-16  3.0336757059539731e-18  4.3030241212065537e-18  -4.2552538279039857e-19  8.1419154400491384e-20  -9.7740712349909630e-20  -4.3151494953845918e-15  -2.0693590933370859e-15  -2.9373472666599913e-15  -2.7235518063283021e-15  -1.7224238766834365e-15  -1.1358752670106507e-15  -4.7811552552593907e-15  -1.0441821193421733e-14  -8.3738639617948968e-15  2.7873438078047691e-15  1.0616415276218862e-14  7.7387324668108371e-15  1.1907350491290465e-15  -1.3795928547036008e-15  -7.1861739609726470e-16  -1.9318503411279358e-17  5.1548747207962163e-17  2.6424006404160459e-18  -1.5694158550007907e-18  4.1120551362355974e-19  -1.4336285241822365e-19  3.6226002548331179e-16  2.4926557775665408e-16  1.9235595578659251e-16  2.6808069518732846e-16  7.1606967605185961e-16  6.5997936719713110e-16  -1.2860152236731443e-15  -2.9096308238478570e-15  2.5775115405305185e-17  5.2327909110673898e-15  5.6712962746055147e-15  1.1907350491290469e-15  -1.9142602316766683e-15  -1.3973930393070106e-15  -1.0719857784320952e-16  1.9123554814792942e-16  4.2303043301997867e-17  -1.1416779844170668e-17  -1.3462262773247359e-18  7.6936464997153299e-19  -3.2080206607588146e-19  2.5725333844683497e-16  1.0512514894557516e-16  1.6022588853120656e-16  1.7281461867403748e-16  3.2237220045578643e-16  2.1001830893817233e-16  -4.8385803680525838e-16  -6.1615445099217585e-16  9.0111412262177154e-16  2.0811148942383851e-15  6.9321761430369051e-16  -1.3795928547036069e-15  -1.3973930393070155e-15  -1.7048998990073032e-16  3.4683530672346642e-16  1.3740175570555823e-16  -2.5457789883460807e-17  -1.6180066403642845e-17  2.2479832113917961e-18  6.0095447454126542e-19  -4.5886282374576906e-19  -1.0018409892987441e-16  -6.6919425939994714e-17  -6.3073820484407493e-17  -6.1085813855669878e-17  -2.3054907887939148e-17  -6.6045379757508400e-17  -2.2849432133898637e-16  -1.4534870898016900e-16  2.6608822025772877e-16  2.1187123312228869e-16  -4.9015152358433902e-16  -7.1861739609726638e-16  -1.0719857784320839e-16  3.4683530672346617e-16  1.9671049933613413e-16  -3.1459024539648436e-17  -4.5000321254102701e-17  -6.3850499261429360e-19  4.5319063483862839e-18  -4.1982852223126533e-19  -3.1737365893840806e-19  -3.6892742263844269e-17  -1.7550137905427244e-17  -2.3499406440807659e-17  -2.2530541715412860e-17  -1.4774684325972250e-17  -2.2173621157465019e-17  -4.6249881887914438e-17  -1.4562017113241928e-17  3.4036436454797488e-17  -6.2322767256633997e-17  -1.6998132302732015e-16  -1.9318503411278396e-17  1.9123554814792981e-16  1.3740175570555799e-16  -3.1459024539648362e-17  -6.1176846616394401e-17  -7.3665032587239407e-18  1.0158650129549266e-17  1.4829006485129779e-18  -1.1397401845623293e-18  9.7505372947187081e-20  2.7914591343774533e-18  2.6067450744515688e-18  1.6283651839163202e-18  1.5825274314574270e-18  2.9984601613555722e-18  2.5054220389437216e-18  1.1068536219203097e-19  5.0824907778916834e-18  4.9746575521350239e-18  -1.1359411055874889e-17  3.0336757059542088e-18  5.1548747207962089e-17  4.2303043301997676e-17  -2.5457789883460955e-17  -4.5000321254102664e-17  -7.3665032587239731e-18  1.2799145819351275e-17  4.2211542535586755e-18  -1.8634467754254129e-18  -5.5148706221325433e-19  3.5202848814021352e-19  1.2581268940586754e-19  4.4334331221330446e-19  -2.6247314712749463e-20  -1.9837010571058266e-20  1.8675623133034926e-19  4.3596904955669461e-20  -1.1135851355546520e-19  8.4119530147685587e-19  9.9711259285778622e-19  7.1142522142213583e-19  4.3030241212065729e-18  2.6424006404159627e-18  -1.1416779844170723e-17  -1.6180066403642820e-17  -6.3850499261427357e-19  1.0158650129549264e-17  4.2211542535586747e-18  -2.0888992596998819e-18  -1.2570880535182972e-18  3.0438706000029032e-19  1.8537585106352258e-19  8.6950659931792633e-19  6.6749676801002646e-19  4.8989499693513895e-19  6.2414391345751385e-19  5.9466424032157815e-19  5.2940492235967397e-19  5.6644210635745167e-19  7.9103685435896703e-19  7.0851118690433303e-19  2.0595861795632971e-19  -4.2552538279042159e-19  -1.5694158550008115e-18  -1.3462262773247325e-18  2.2479832113918030e-18  4.5319063483862754e-18  1.4829006485129779e-18  -1.8634467754254133e-18  -1.2570880535182967e-18  2.7652136732603651e-19  3.0919579524201687e-19  -6.3989560683554789e-20  2.0670914560569502e-19  3.9036675704364139e-20  2.1311170808089171e-19  2.1370841723483597e-19  1.8398096545731455e-19  1.8594765176276602e-19  1.8952005760013463e-19  1.6829738201397248e-19  4.9343608203412775e-20  -4.7559699299383887e-20  8.1419154400492925e-20  4.1120551362356817e-19  7.6936464997154098e-19  6.0095447454127110e-19  -4.1982852223126263e-19  -1.1397401845623268e-18  -5.5148706221325346e-19  3.0438706000029051e-19  3.0919579524201649e-19  -3.0210373367258325e-20  -8.8015552092068187e-20  -4.5215324656665845e-19  -2.5753669152896872e-19  -1.5776346870293206e-19  -2.2955153282962380e-19  -2.2970643693306969e-19  -2.1955525344811791e-19  -2.2523021797837058e-19  -2.3572849303141613e-19  -2.3159092160202896e-19  -1.7075405387142194e-19  -9.7740712349906620e-20  -1.4336285241822225e-19  -3.2080206607588459e-19  -4.5886282374577272e-19  -3.1737365893840984e-19  9.7505372947186118e-20  3.5202848814021237e-19  1.8537585106352234e-19  -6.3989560683554681e-20  -8.8015552092068091e-20  5.0034228104954455e-21  -9.9322450162655016e-14  -6.3381250231036955e-14  -6.1295144717023563e-14  -6.1974723132507379e-14  -5.6165287402144085e-14  -5.8651250805440057e-14  -8.3333453980193185e-14  -9.7138342882445518e-14  -5.2631945102055398e-14  2.0776709980243780e-14  5.0398168023233999e-14  2.9337418803017780e-14  4.9909876124163597e-15  -1.2171231710214853e-15  -3.9089175062507771e-17  2.5708044074130082e-16  1.4839755328081746e-17  -1.2931980821342696e-17  -1.0214954021994493e-18  -1.2507779684929446e-18  7.4588088073958690e-19  -6.3381250231037410e-14  -3.2886396350729418e-14  -3.1676022272850775e-14  -3.2505121164866571e-14  -2.9537553151422594e-14  -3.0815752654487648e-14  -4.2972706933364071e-14  -4.9887927243563900e-14  -2.8743094028483524e-14  6.2105059176765490e-15  2.0642016657264124e-14  1.1793585236308346e-14  1.6479302104740586e-15  -5.6900651559334990e-16  5.0541785061242209e-17  1.2005003164232601e-16  -1.3076235308894819e-18  -7.2484360965093248e-18  -8.3889790251805172e-19  -4.4087740197132611e-19  5.7891739527861977e-19  -6.1295144717023538e-14  -3.1676022272850567e-14  -3.0144134883041733e-14  -3.0801435653602403e-14  -2.7796370290023635e-14  -2.9333442144824688e-14  -4.2103191501369483e-14  -4.8733882879772814e-14  -2.5228796756173146e-14  1.2600966770092157e-14  2.7304810537838117e-14  1.5782687604541711e-14  2.7754113684981193e-15  -6.1911045607638999e-16  -3.9006345447937282e-17  1.2948080080223135e-16  9.4143009584431175e-18  -6.4867744975178747e-18  -6.8401583464525208e-19  -7.3414195895579139e-19  2.0027571498401638e-19  -6.1974723132506899e-14  -3.2505121164865807e-14  -3.0801435653601930e-14  -3.1510875021528345e-14  -2.8638134681642616e-14  -3.0280681822351902e-14  -4.2891976015318857e-14  -4.9090607458042246e-14  -2.5238321801973434e-14  1.2601049358637547e-14  2.7167823443288079e-14  1.5651236323555834e-14  2.7726567961255682e-15  -5.4978205364522651e-16  9.0337870030351491e-18  1.4177238743669371e-16  9.8518774651616099e-18  -6.6513716058758716e-18  -8.3523448460265964e-19  -7.9569185917201270e-19  2.8716510802087578e-19  -5.6165287402142608e-14  -2.9537553151421723e-14  -2.7796370290023099e-14  -2.8638134681642572e-14  -2.5862105752225406e-14  -2.7242735680139293e-14  -3.9180804794079577e-14  -4.4937090441593861e-14  -2.1623889988164348e-14  1.4778175735648648e-14  2.7867229259605518e-14  1.5525539408443840e-14  2.4767861190508328e-15  -7.3328915500442037e-16  -5.7472676914634158e-17  1.2737794746023972e-16  8.3514713070685733e-18  -6.7087277002728096e-18  -8.2081587576314805e-19  -7.3568057565249377e-19  3.2214137918719600e-19  -5.8651250805438568e-14  -3.0815752654487118e-14  -2.9333442144824618e-14  -3.0280681822352319e-14  -2.7242735680139526e-14  -2.7873507494100578e-14  -3.9513617395267193e-14  -4.6663126815350083e-14  -2.6069302551639989e-14  8.3633428438605900e-15  2.1747944592423518e-14  1.1405465738073917e-14  4.6654258577070233e-16  -1.4546925037839771e-15  -2.5416382505652728e-16  8.3079412629272294e-17  -3.7944227808358637e-19  -7.8154555999063624e-18  -7.7039845480296595e-19  -7.2323241048663195e-19  3.0044785653482882e-19  -8.3333453980192479e-14  -4.2972706933364141e-14  -4.2103191501370108e-14  -4.2891976015319526e-14  -3.9180804794079710e-14  -3.9513617395267061e-14  -5.2931250845767997e-14  -6.3500711194597633e-14  -4.4354132237126132e-14  -6.5096978983089248e-15  1.3537828875986880e-14  8.9591656605528708e-15  6.8498410071744453e-16  -8.6761402614339992e-16  2.0059530369802768e-17  1.4657339804608683e-16  6.6715513220202176e-18  -7.1436257535606643e-18  -5.0268973936124737e-19  -6.7890528600371518e-19  3.0090916610505973e-19  -9.7138342882445682e-14  -4.9887927243564355e-14  -4.8733882879773476e-14  -4.9090607458042486e-14  -4.4937090441593514e-14  -4.6663126815349749e-14  -6.3500711194597406e-14  -7.5060724389001051e-14  -4.9694843181397429e-14  -8.4447654419232683e-16  2.6865187484017229e-14  2.2128457405237932e-14  8.8289906705177947e-15  2.4907592027463877e-15  9.3589144454740569e-16  3.0549189634943278e-16  2.4281436762961146e-17  -5.7878023555904745e-18  -6.2872894747523994e-19  -7.1953650413808640e-19  3.1752863802223549e-19  -5.2631945102055638e-14  -2.8743094028483821e-14  -2.5228796756173178e-14  -2.5238321801972986e-14  -2.1623889988163919e-14  -2.6069302551639869e-14  -4.4354132237126308e-14  -4.9694843181397505e-14  -1.1728982694026090e-14  4.4204495032280462e-14  6.4662311196412677e-14  4.3520278858588220e-14  1.6207436267693500e-14  3.4162698253926159e-15  5.5334324575537824e-16  1.0459440875140880e-16  -1.4072068009773914e-17  -1.1289778836129039e-17  -1.9835474254931227e-18  -7.4842788534123487e-19  3.7735290172915543e-19  2.0776709980243995e-14  6.2105059176767194e-15  1.2600966770092473e-14  1.2601049358637888e-14  1.4778175735648806e-14  8.3633428438603250e-15  -6.5096978983092278e-15  -8.4447654419261713e-16  4.4204495032280632e-14  8.8966534366599823e-14  8.3652947419305858e-14  4.0762184395597802e-14  6.6569196039780735e-15  -2.9296771793933983e-15  -1.6064278755672613e-15  -2.4484067312685671e-16  -2.1429674409999547e-17  -9.2228857222451856e-18  -1.7716253951205634e-18  -1.8269977013469269e-19  4.3383761819940355e-19  5.0398168023234377e-14  2.0642016657264304e-14  2.7304810537838284e-14  2.7167823443288073e-14  2.7867229259605386e-14  2.1747944592423234e-14  1.3537828875986559e-14  2.6865187484017024e-14  6.4662311196412626e-14  8.3652947419306110e-14  5.4167806231262117e-14  8.0867280608446167e-15  -1.2592190068508949e-14  -8.7840659697045336e-15  -1.8380425611109273e-15  1.9124150973088558e-16  9.5627457823888947e-17  -3.4977906532359789e-18  -3.5915294919302245e-19  5.4110561267882881e-19  2.4223889459823282e-19  2.9337418803017957e-14  1.1793585236308280e-14  1.5782687604541597e-14  1.5651236323555733e-14  1.5525539408443664e-14  1.1405465738073761e-14  8.9591656605527446e-15  2.2128457405237963e-14  4.3520278858588271e-14  4.0762184395597852e-14  8.0867280608446325e-15  -1.8797932035922756e-14  -1.7870251858489009e-14  -5.1445250746282171e-15  1.0274957829093135e-15  8.7441216832857113e-16  7.0976174184330811e-17  -3.1187988906822133e-17  9.7511244674482110e-19  5.7071914449101663e-19  -1.6431262464068928e-19  4.9909876124162241e-15  1.6479302104738913e-15  2.7754113684979801e-15  2.7726567961254956e-15  2.4767861190507925e-15  4.6654258577070311e-16  6.8498410071745202e-16  8.8289906705178846e-15  1.6207436267693564e-14  6.6569196039780577e-15  -1.2592190068508949e-14  -1.7870251858489047e-14  -7.0770558881652521e-15  2.1256357311067675e-15  2.5935444486838462e-15  4.5452290945116206e-16  -1.8335365910577638e-16  -4.4434511271109822e-17  8.8975320649572956e-18  -3.1060444389363074e-19  -3.3497466541586186e-19  -1.2171231710216346e-15  -5.6900651559342139e-16  -6.1911045607640922e-16  -5.4978205364519564e-16  -7.3328915500438930e-16  -1.4546925037839572e-15  -8.6761402614337783e-16  2.4907592027464126e-15  3.4162698253926171e-15  -2.9296771793934094e-15  -8.7840659697045463e-15  -5.1445250746282242e-15  2.1256357311067868e-15  3.6499284061876285e-15  1.0027873843597865e-15  -4.4577973104373335e-16  -2.3864913664947300e-16  1.8181543128157958e-17  1.5203285105960107e-17  -2.7411363472115582e-18  4.4533092287190154e-20  -3.9089175062559220e-17  5.0541785061239201e-17  -3.9006345447920913e-17  9.0337870030600475e-18  -5.7472676914627403e-17  -2.5416382505653280e-16  2.0059530369803211e-17  9.3589144454740885e-16  5.5334324575537163e-16  -1.6064278755672712e-15  -1.8380425611109273e-15  1.0274957829093204e-15  2.5935444486838573e-15  1.0027873843597827e-15  -5.8708962317690982e-16  -4.9136495541813686e-16  -2.7957769713172662e-18  6.5650643451678098e-17  2.1623902995098740e-18  -4.4894669263545958e-18  8.8388169920851618e-19  2.5708044074129984e-16  1.2005003164233245e-16  1.2948080080223635e-16  1.4177238743669465e-16  1.2737794746023294e-16  8.3079412629266143e-17  1.4657339804608703e-16  3.0549189634943416e-16  1.0459440875140749e-16  -2.4484067312685592e-16  1.9124150973088814e-16  8.7441216832857014e-16  4.5452290945115960e-16  -4.4577973104373394e-16  -4.9136495541813647e-16  -2.5532411007822712e-17  1.2064001794823177e-16  2.4413334654326975e-17  -1.3833763683104732e-17  -1.6506913463687377e-18  1.3410694908431888e-18  1.4839755328086125e-17  -1.3076235308886156e-18  9.4143009584421977e-18  9.8518774651598103e-18  8.3514713070671527e-18  -3.7944227808278981e-19  6.6715513220220341e-18  2.4281436762961904e-17  -1.4072068009773944e-17  -2.1429674409999226e-17  9.5627457823888750e-17  7.0976174184330083e-17  -1.8335365910577693e-16  -2.3864913664947246e-16  -2.7957769713170936e-18  1.2064001794823155e-16  3.9884379007840568e-17  -2.0895699022141632e-17  -8.9322239244110353e-18  2.5412798584168427e-18  5.9726051358050599e-19  -1.2931980821342252e-17  -7.2484360965099442e-18  -6.4867744975180935e-18  -6.6513716058757253e-18  -6.7087277002722241e-18  -7.8154555999056059e-18  -7.1436257535605364e-18  -5.7878023555907811e-18  -1.1289778836129262e-17  -9.2228857222452796e-18  -3.4977906532363225e-18  -3.1187988906822257e-17  -4.4434511271109446e-17  1.8181543128158180e-17  6.5650643451678048e-17 