<?xml version="1.0"?>
<VTKFile type="UnstructuredGrid"  version="0.1"  >
<UnstructuredGrid>
<Piece  NumberOfPoints="9261" NumberOfCells="48000">
<Points>
<DataArray  type="Float64"  NumberOfComponents="3"  format="ascii">-2 -2 -2  -1.8 -2 -2  -1.6 -2 -2  -1.4 -2 -2  -1.2 -2 -2  -1 -2 -2  -0.8 -2 -2  -0.6000000000000001 -2 -2  -0.3999999999999999 -2 -2  -0.2 -2 -2  0 -2 -2  0.2000000000000002 -2 -2  0.3999999999999999 -2 -2  0.6000000000000001 -2 -2  0.7999999999999998 -2 -2  1 -2 -2  1.2 -2 -2  1.4 -2 -2  1.6 -2 -2  1.8 -2 -2  2 -2 -2  -2 -1.8 -2  -1.8 -1.8 -2  -1.6 -1.8 -2  -1.4 -1.8 -2  -1.2 -1.8 -2  -1 -1.8 -2  -0.8 -1.8 -2  -0.6000000000000001 -1.8 -2  -0.3999999999999999 -1.8 -2  -0.2 -1.8 -2  0 -1.8 -2  0.2000000000000002 -1.8 -2  0.3999999999999999 -1.8 -2  0.6000000000000001 -1.8 -2  0.7999999999999998 -1.8 -2  1 -1.8 -2  1.2 -1.8 -2  1.4 -1.8 -2  1.6 -1.8 -2  1.8 -1.8 -2  2 -1.8 -2  -2 -1.6 -2  -1.8 -1.6 -2  -1.6 -1.6 -2  -1.4 -1.6 -2  -1.2 -1.6 -2  -1 -1.6 -2  -0.8 -1.6 -2  -0.6000000000000001 -1.6 -2  -0.3999999999999999 -1.6 -2  -0.2 -1.6 -2  0 -1.6 -2  0.2000000000000002 -1.6 -2  0.3999999999999999 -1.6 -2  0.6000000000000001 -1.6 -2  0.7999999999999998 -1.6 -2  1 -1.6 -2  1.2 -1.6 -2  1.4 -1.6 -2  1.6 -1.6 -2  1.8 -1.6 -2  2 -1.6 -2  -2 -1.4 -2  -1.8 -1.4 -2  -1.6 -1.4 -2  -1.4 -1.4 -2  -1.2 -1.4 -2  -1 -1.4 -2  -0.8 -1.4 -2  -0.6000000000000001 -1.4 -2  -0.3999999999999999 -1.4 -2  -0.2 -1.4 -2  0 -1.4 -2  0.2000000000000002 -1.4 -2  0.3999999999999999 -1.4 -2  0.6000000000000001 -1.4 -2  0.7999999999999998 -1.4 -2  1 -1.4 -2  1.2 -1.4 -2  1.4 -1.4 -2  1.6 -1.4 -2  1.8 -1.4 -2  2 -1.4 -2  -2 -1.2 -2  -1.8 -1.2 -2  -1.6 -1.2 -2  -1.4 -1.2 -2  -1.2 -1.2 -2  -1 -1.2 -2  -0.8 -1.2 -2  -0.6000000000000001 -1.2 -2  -0.3999999999999999 -1.2 -2  -0.2 -1.2 -2  0 -1.2 -2  0.2000000000000002 -1.2 -2  0.3999999999999999 -1.2 -2  0.6000000000000001 -1.2 -2  0.7999999999999998 -1.2 -2  1 -1.2 -2  1.2 -1.2 -2  1.4 -1.2 -2  1.6 -1.2 -2  1.8 -1.2 -2  2 -1.2 -2  -2 -1 -2  -1.8 -1 -2  -1.6 -1 -2  -1.4 -1 -2  -1.2 -1 -2  -1 -1 -2  -0.8 -1 -2  -0.6000000000000001 -1 -2  -0.3999999999999999 -1 -2  -0.2 -1 -2  0 -1 -2  0.2000000000000002 -1 -2  0.3999999999999999 -1 -2  0.6000000000000001 -1 -2  0.7999999999999998 -1 -2  1 -1 -2  1.2 -1 -2  1.4 -1 -2  1.6 -1 -2  1.8 -1 -2  2 -1 -2  -2 -0.8 -2  -1.8 -0.8 -2  -1.6 -0.8 -2  -1.4 -0.8 -2  -1.2 -0.8 -2  -1 -0.8 -2  -0.8 -0.8 -2  -0.6000000000000001 -0.8 -2  -0.3999999999999999 -0.8 -2  -0.2 -0.8 -2  0 -0.8 -2  0.2000000000000002 -0.8 -2  0.3999999999999999 -0.8 -2  0.6000000000000001 -0.8 -2  0.7999999999999998 -0.8 -2  1 -0.8 -2  1.2 -0.8 -2  1.4 -0.8 -2  1.6 -0.8 -2  1.8 -0.8 -2  2 -0.8 -2  -2 -0.6000000000000001 -2  -1.8 -0.6000000000000001 -2  -1.6 -0.6000000000000001 -2  -1.4 -0.6000000000000001 -2  -1.2 -0.6000000000000001 -2  -1 -0.6000000000000001 -2  -0.8 -0.6000000000000001 -2  -0.6000000000000001 -0.6000000000000001 -2  -0.3999999999999999 -0.6000000000000001 -2  -0.2 -0.6000000000000001 -2  0 -0.6000000000000001 -2  0.2000000000000002 -0.6000000000000001 -2  0.3999999999999999 -0.6000000000000001 -2  0.6000000000000001 -0.6000000000000001 -2  0.7999999999999998 -0.6000000000000001 -2  1 -0.6000000000000001 -2  1.2 -0.6000000000000001 -2  1.4 -0.6000000000000001 -2  1.6 -0.6000000000000001 -2  1.8 -0.6000000000000001 -2  2 -0.6000000000000001 -2  -2 -0.3999999999999999 -2  -1.8 -0.3999999999999999 -2  -1.6 -0.3999999999999999 -2  -1.4 -0.3999999999999999 -2  -1.2 -0.3999999999999999 -2  -1 -0.3999999999999999 -2  -0.8 -0.3999999999999999 -2  -0.6000000000000001 -0.3999999999999999 -2  -0.3999999999999999 -0.3999999999999999 -2  -0.2 -0.3999999999999999 -2  0 -0.3999999999999999 -2  0.2000000000000002 -0.3999999999999999 -2  0.3999999999999999 -0.3999999999999999 -2  0.6000000000000001 -0.3999999999999999 -2  0.7999999999999998 -0.3999999999999999 -2  1 -0.3999999999999999 -2  1.2 -0.3999999999999999 -2  1.4 -0.3999999999999999 -2  1.6 -0.3999999999999999 -2  1.8 -0.3999999999999999 -2  2 -0.3999999999999999 -2  -2 -0.2 -2  -1.8 -0.2 -2  -1.6 -0.2 -2  -1.4 -0.2 -2  -1.2 -0.2 -2  -1 -0.2 -2  -0.8 -0.2 -2  -0.6000000000000001 -0.2 -2  -0.3999999999999999 -0.2 -2  -0.2 -0.2 -2  0 -0.2 -2  0.2000000000000002 -0.2 -2  0.3999999999999999 -0.2 -2  0.6000000000000001 -0.2 -2  0.7999999999999998 -0.2 -2  1 -0.2 -2  1.2 -0.2 -2  1.4 -0.2 -2  1.6 -0.2 -2  1.8 -0.2 -2  2 -0.2 -2  -2 0 -2  -1.8 0 -2  -1.6 0 -2  -1.4 0 -2  -1.2 0 -2  -1 0 -2  -0.8 0 -2  -0.6000000000000001 0 -2  -0.3999999999999999 0 -2  -0.2 0 -2  0 0 -2  0.2000000000000002 0 -2  0.3999999999999999 0 -2  0.6000000000000001 0 -2  0.7999999999999998 0 -2  1 0 -2  1.2 0 -2  1.4 0 -2  1.6 0 -2  1.8 0 -2  2 0 -2  -2 0.2000000000000002 -2  -1.8 0.2000000000000002 -2  -1.6 0.2000000000000002 -2  -1.4 0.2000000000000002 -2  -1.2 0.2000000000000002 -2  -1 0.2000000000000002 -2  -0.8 0.2000000000000002 -2  -0.6000000000000001 0.2000000000000002 -2  -0.3999999999999999 0.2000000000000002 -2  -0.2 0.2000000000000002 -2  0 0.2000000000000002 -2  0.2000000000000002 0.2000000000000002 -2  0.3999999999999999 0.2000000000000002 -2  0.6000000000000001 0.2000000000000002 -2  0.7999999999999998 0.2000000000000002 -2  1 0.2000000000000002 -2  1.2 0.2000000000000002 -2  1.4 0.2000000000000002 -2  1.6 0.2000000000000002 -2  1.8 0.2000000000000002 -2  2 0.2000000000000002 -2  -2 0.3999999999999999 -2  -1.8 0.3999999999999999 -2  -1.6 0.3999999999999999 -2  -1.4 0.3999999999999999 -2  -1.2 0.3999999999999999 -2  -1 0.3999999999999999 -2  -0.8 0.3999999999999999 -2  -0.6000000000000001 0.3999999999999999 -2  -0.3999999999999999 0.3999999999999999 -2  -0.2 0.3999999999999999 -2  0 0.3999999999999999 -2  0.2000000000000002 0.3999999999999999 -2  0.3999999999999999 0.3999999999999999 -2  0.6000000000000001 0.3999999999999999 -2  0.7999999999999998 0.3999999999999999 -2  1 0.3999999999999999 -2  1.2 0.3999999999999999 -2  1.4 0.3999999999999999 -2  1.6 0.3999999999999999 -2  1.8 0.3999999999999999 -2  2 0.3999999999999999 -2  -2 0.6000000000000001 -2  -1.8 0.6000000000000001 -2  -1.6 0.6000000000000001 -2  -1.4 0.6000000000000001 -2  -1.2 0.6000000000000001 -2  -1 0.6000000000000001 -2  -0.8 0.6000000000000001 -2  -0.6000000000000001 0.6000000000000001 -2  -0.3999999999999999 0.6000000000000001 -2  -0.2 0.6000000000000001 -2  0 0.6000000000000001 -2  0.2000000000000002 0.6000000000000001 -2  0.3999999999999999 0.6000000000000001 -2  0.6000000000000001 0.6000000000000001 -2  0.7999999999999998 0.6000000000000001 -2  1 0.6000000000000001 -2  1.2 0.6000000000000001 -2  1.4 0.6000000000000001 -2  1.6 0.6000000000000001 -2  1.8 0.6000000000000001 -2  2 0.6000000000000001 -2  -2 0.7999999999999998 -2  -1.8 0.7999999999999998 -2  -1.6 0.7999999999999998 -2  -1.4 0.7999999999999998 -2  -1.2 0.7999999999999998 -2  -1 0.7999999999999998 -2  -0.8 0.7999999999999998 -2  -0.6000000000000001 0.7999999999999998 -2  -0.3999999999999999 0.7999999999999998 -2  -0.2 0.7999999999999998 -2  0 0.7999999999999998 -2  0.2000000000000002 0.7999999999999998 -2  0.3999999999999999 0.7999999999999998 -2  0.6000000000000001 0.7999999999999998 -2  0.7999999999999998 0.7999999999999998 -2  1 0.7999999999999998 -2  1.2 0.7999999999999998 -2  1.4 0.7999999999999998 -2  1.6 0.7999999999999998 -2  1.8 0.7999999999999998 -2  2 0.7999999999999998 -2  -2 1 -2  -1.8 1 -2  -1.6 1 -2  -1.4 1 -2  -1.2 1 -2  -1 1 -2  -0.8 1 -2  -0.6000000000000001 1 -2  -0.3999999999999999 1 -2  -0.2 1 -2  0 1 -2  0.2000000000000002 1 -2  0.3999999999999999 1 -2  0.6000000000000001 1 -2  0.7999999999999998 1 -2  1 1 -2  1.2 1 -2  1.4 1 -2  1.6 1 -2  1.8 1 -2  2 1 -2  -2 1.2 -2  -1.8 1.2 -2  -1.6 1.2 -2  -1.4 1.2 -2  -1.2 1.2 -2  -1 1.2 -2  -0.8 1.2 -2  -0.6000000000000001 1.2 -2  -0.3999999999999999 1.2 -2  -0.2 1.2 -2  0 1.2 -2  0.2000000000000002 1.2 -2  0.3999999999999999 1.2 -2  0.6000000000000001 1.2 -2  0.7999999999999998 1.2 -2  1 1.2 -2  1.2 1.2 -2  1.4 1.2 -2  1.6 1.2 -2  1.8 1.2 -2  2 1.2 -2  -2 1.4 -2  -1.8 1.4 -2  -1.6 1.4 -2  -1.4 1.4 -2  -1.2 1.4 -2  -1 1.4 -2  -0.8 1.4 -2  -0.6000000000000001 1.4 -2  -0.3999999999999999 1.4 -2  -0.2 1.4 -2  0 1.4 -2  0.2000000000000002 1.4 -2  0.3999999999999999 1.4 -2  0.6000000000000001 1.4 -2  0.7999999999999998 1.4 -2  1 1.4 -2  1.2 1.4 -2  1.4 1.4 -2  1.6 1.4 -2  1.8 1.4 -2  2 1.4 -2  -2 1.6 -2  -1.8 1.6 -2  -1.6 1.6 -2  -1.4 1.6 -2  -1.2 1.6 -2  -1 1.6 -2  -0.8 1.6 -2  -0.6000000000000001 1.6 -2  -0.3999999999999999 1.6 -2  -0.2 1.6 -2  0 1.6 -2  0.2000000000000002 1.6 -2  0.3999999999999999 1.6 -2  0.6000000000000001 1.6 -2  0.7999999999999998 1.6 -2  1 1.6 -2  1.2 1.6 -2  1.4 1.6 -2  1.6 1.6 -2  1.8 1.6 -2  2 1.6 -2  -2 1.8 -2  -1.8 1.8 -2  -1.6 1.8 -2  -1.4 1.8 -2  -1.2 1.8 -2  -1 1.8 -2  -0.8 1.8 -2  -0.6000000000000001 1.8 -2  -0.3999999999999999 1.8 -2  -0.2 1.8 -2  0 1.8 -2  0.2000000000000002 1.8 -2  0.3999999999999999 1.8 -2  0.6000000000000001 1.8 -2  0.7999999999999998 1.8 -2  1 1.8 -2  1.2 1.8 -2  1.4 1.8 -2  1.6 1.8 -2  1.8 1.8 -2  2 1.8 -2  -2 2 -2  -1.8 2 -2  -1.6 2 -2  -1.4 2 -2  -1.2 2 -2  -1 2 -2  -0.8 2 -2  -0.6000000000000001 2 -2  -0.3999999999999999 2 -2  -0.2 2 -2  0 2 -2  0.2000000000000002 2 -2  0.3999999999999999 2 -2  0.6000000000000001 2 -2  0.7999999999999998 2 -2  1 2 -2  1.2 2 -2  1.4 2 -2  1.6 2 -2  1.8 2 -2  2 2 -2  -2 -2 -1.8  -1.8 -2 -1.8  -1.6 -2 -1.8  -1.4 -2 -1.8  -1.2 -2 -1.8  -1 -2 -1.8  -0.8 -2 -1.8  -0.6000000000000001 -2 -1.8  -0.3999999999999999 -2 -1.8  -0.2 -2 -1.8  0 -2 -1.8  0.2000000000000002 -2 -1.8  0.3999999999999999 -2 -1.8  0.6000000000000001 -2 -1.8  0.7999999999999998 -2 -1.8  1 -2 -1.8  1.2 -2 -1.8  1.4 -2 -1.8  1.6 -2 -1.8  1.8 -2 -1.8  2 -2 -1.8  -2 -1.8 -1.8  -1.8 -1.8 -1.8  -1.6 -1.8 -1.8  -1.4 -1.8 -1.8  -1.2 -1.8 -1.8  -1 -1.8 -1.8  -0.8 -1.8 -1.8  -0.6000000000000001 -1.8 -1.8  -0.3999999999999999 -1.8 -1.8  -0.2 -1.8 -1.8  0 -1.8 -1.8  0.2000000000000002 -1.8 -1.8  0.3999999999999999 -1.8 -1.8  0.6000000000000001 -1.8 -1.8  0.7999999999999998 -1.8 -1.8  1 -1.8 -1.8  1.2 -1.8 -1.
[...]
<PointData  Scalars="uA"> 
<DataArray  type="Float64"  Name="uA"  format="ascii">-1.5808683216321218e-12  -1.1456256301128122e-12  -1.0204288194639995e-12  -1.2375128305232104e-12  -1.5999880495132731e-12  -1.3064371242245955e-12  2.1168295384948882e-13  1.5566093361561469e-12  4.1550342885219582e-14  -4.2580693797743220e-12  -6.9867993701143713e-12  -4.7376018411405166e-12  7.9071184326838098e-14  2.6677237355723755e-12  2.0365757891055174e-12  6.5834350204473847e-13  1.1657211758103848e-13  6.5325619345419949e-14  5.1693518213045231e-14  2.2290718138958371e-14  9.6267880209127325e-15  -1.1456256301128019e-12  -7.5000258770198243e-13  -6.4937091840934286e-13  -7.9850809294725757e-13  -1.0589892036151329e-12  -8.6922206549559317e-13  1.9266217429732764e-13  1.1547425728844840e-12  9.6433053226676744e-14  -2.9271456088163870e-12  -4.7846605350232777e-12  -3.1135619967106640e-12  2.1296870768680577e-13  1.8118079418212361e-12  1.2440075671071964e-12  3.6834244920115747e-13  1.0240374002941653e-13  6.4991059352217030e-14  2.8962278323547637e-14  5.6232531860734396e-15  -1.6712429466325733e-16  -1.0204288194639896e-12  -6.4937091840934276e-13  -5.6707750486796256e-13  -6.9738667642042726e-13  -9.0800475863545569e-13  -7.2304353917626721e-13  1.8825392792826418e-13  9.6739346272142042e-13  -3.5804790380696111e-15  -2.6124189449084364e-12  -4.1572223262859129e-12  -2.6708183984273261e-12  1.9014848155576035e-13  1.5507544525954777e-12  1.0786557789025244e-12  3.4777847159121403e-13  1.0412852073237495e-13  4.2448127070386286e-14  1.1063664782780667e-14  9.2046523722565017e-16  3.3669816546635146e-16  -1.2375128305232187e-12  -7.9850809294726363e-13  -6.9738667642042726e-13  -8.1492205170217240e-13  -1.0040757608784371e-12  -8.1213028685786991e-13  5.0144769883768339e-14  7.3959558944242836e-13  -2.5941505760300126e-13  -2.7715730796715435e-12  -4.1945876270457179e-12  -2.6982011093734061e-12  9.3792553314260587e-14  1.4405235813873740e-12  1.0274401202499753e-12  3.4001123753539700e-13  9.3793231501588172e-14  2.6087237068244450e-14  3.7867006634236410e-15  -1.7490518258847178e-16  7.2609597804348808e-17  -1.5999880495132971e-12  -1.0589892036151400e-12  -9.0800475863544882e-13  -1.0040757608784300e-12  -1.1876755841724125e-12  -1.0102882213378339e-12  -1.8830537241942811e-13  4.5406867805222542e-13  -5.4985188445878314e-13  -2.9917426570597800e-12  -4.3023919926396954e-12  -2.7174492303787034e-12  1.1948216901512679e-13  1.4927123321376930e-12  1.0952899870279548e-12  3.9981594147133591e-13  1.2970412524597930e-13  4.4299967673767700e-14  1.5007180564746646e-14  5.5327604130259998e-15  2.2995893022859888e-15  -1.3064371242246240e-12  -8.6922206549559550e-13  -7.2304353917625368e-13  -8.1213028685785981e-13  -1.0102882213378328e-12  -8.6838836264529567e-13  -7.6611168615258652e-14  5.8165287925545045e-13  -3.3448339740119314e-13  -2.6357370245292625e-12  -3.8157261173301319e-12  -2.1731499097372610e-12  6.3280848746094019e-13  1.9169805062271437e-12  1.4103922079781219e-12  6.1067233933225211e-13  2.5743901111174849e-13  1.1682275970403045e-13  5.4854658601408806e-14  2.5652521146045480e-14  1.2766113458668365e-14  2.1168295384947186e-13  1.9266217429733521e-13  1.8825392792828074e-13  5.0144769883776177e-14  -1.8830537241942995e-13  -7.6611168615261454e-14  7.4238446577005202e-13  1.5180059283420665e-12  7.7529460645554747e-13  -1.3935033291799484e-12  -2.5777277039229966e-12  -1.1017757891161168e-12  1.4327883740141096e-12  2.4338081869439960e-12  1.7010729147567759e-12  7.5408634569866282e-13  3.2119740991921083e-13  1.4499098168188224e-13  6.9336429928274984e-14  3.4411580324073578e-14  1.8468779057914313e-14  1.5566093361561564e-12  1.1547425728845028e-12  9.6739346272143698e-13  7.3959558944243311e-13  4.5406867805222224e-13  5.8165287925544651e-13  1.5180059283420645e-12  2.4801373276347932e-12  1.8622738146978230e-12  -3.9016063892413025e-13  -1.9060948034434022e-12  -9.0102090523438725e-13  1.2027318724489685e-12  1.9444358461019846e-12  1.1482616703035980e-12  2.7533823775817517e-13  -2.6741193269555451e-14  -7.5317484882648856e-14  -5.4439179002698683e-14  -2.8151572469745603e-14  -1.4575039759097221e-14  4.1550342885254721e-14  9.6433053226698100e-14  -3.5804790380606749e-15  -2.5941505760300393e-13  -5.4985188445879081e-13  -3.3448339740119804e-13  7.7529460645554959e-13  1.8622738146978238e-12  1.1255017244157671e-12  -1.5674011979985035e-12  -3.6925181392666217e-12  -3.1693959340462809e-12  -1.1916346871126809e-12  -1.9577757172050391e-13  -5.0656380094344148e-13  -8.5492570815568269e-13  -7.2304994698416613e-13  -4.7030048103111026e-13  -2.6475604736222495e-13  -1.3559263577444648e-13  -7.2877854788480279e-14  -4.2580693797742792e-12  -2.9271456088163709e-12  -2.6124189449084389e-12  -2.7715730796715557e-12  -2.9917426570597905e-12  -2.6357370245292629e-12  -1.3935033291799371e-12  -3.9016063892412117e-13  -1.5674011979985109e-12  -4.9157541359641133e-12  -7.5118442063419082e-12  -6.9106734501866824e-12  -4.2563980152005803e-12  -2.2591613701187186e-12  -1.6127656450873912e-12  -1.2846338232432953e-12  -7.9433907724767520e-13  -4.1254546327581085e-13  -1.9451791892596589e-13  -8.9732253885690090e-14  -4.3876868356056163e-14  -6.9867993701143455e-12  -4.7846605350232761e-12  -4.1572223262859234e-12  -4.1945876270457276e-12  -4.3023919926396978e-12  -3.8157261173301230e-12  -2.5777277039229808e-12  -1.9060948034433994e-12  -3.6925181392666379e-12  -7.5118442063419292e-12  -9.9334780259881111e-12  -8.3662898052198778e-12  -4.3273720929982598e-12  -1.1275876421735786e-12  1.3615858015597416e-13  4.7443652266279589e-13  6.0538548380583090e-13  5.3020652175164985e-13  3.6249253237714380e-13  2.0785761605698088e-13  1.2208445947467415e-13  -4.7376018411405255e-12  -3.1135619967106814e-12  -2.6708183984273414e-12  -2.6982011093734130e-12  -2.7174492303787014e-12  -2.1731499097372477e-12  -1.1017757891161063e-12  -9.0102090523439603e-13  -3.1693959340463096e-12  -6.9106734501867090e-12  -8.3662898052198826e-12  -5.2812129582721664e-12  1.9597314010605980e-14  3.5756152482729222e-12  4.2320055478234638e-12  3.4334158343374403e-12  2.4188045759582625e-12  1.4925419609050323e-12  8.1559702518038351e-13  4.0504351422128805e-13  2.0821990434675853e-13  7.9071184326799930e-14  2.1296870768678012e-13  1.9014848155574914e-13  9.3792553314261799e-14  1.1948216901513249e-13  6.3280848746094130e-13  1.4327883740141096e-12  1.2027318724489521e-12  -1.1916346871127069e-12  -4.2563980152005948e-12  -4.3273720929982574e-12  1.9597314010629810e-14  5.5344631441007454e-12  8.0185478923687746e-12  6.8884009400323849e-12  4.4222105112839269e-12  2.3647488422975015e-12  1.0406904501573793e-12  3.6200236984912631e-13  8.8174282275030009e-14  -4.2872551776138585e-15  2.6677237355723352e-12  1.8118079418212173e-12  1.5507544525954779e-12  1.4405235813873789e-12  1.4927123321376942e-12  1.9169805062271409e-12  2.4338081869439915e-12  1.9444358461019709e-12  -1.9577757172051722e-13  -2.2591613701187182e-12  -1.1275876421735647e-12  3.5756152482729488e-12  8.0185478923687746e-12  8.4761791323020320e-12  5.4617869895419424e-12  2.0622752592114389e-12  7.7579731647983992e-14  -6.2979827457083091e-13  -6.3450958005281192e-13  -4.2369848268134051e-13  -2.6441343796918902e-13  2.0365757891054911e-12  1.2440075671071907e-12  1.0786557789025321e-12  1.0274401202499816e-12  1.0952899870279526e-12  1.4103922079781183e-12  1.7010729147567733e-12  1.1482616703035922e-12  -5.0656380094344522e-13  -1.6127656450873860e-12  1.3615858015598920e-13  4.2320055478234791e-12  6.8884009400323890e-12  5.4617869895419456e-12  1.6119194111919119e-12  -1.3004353831422397e-12  -2.0731554439486934e-12  -1.6217722952435955e-12  -9.1222965959316277e-13  -4.0404169888945554e-13  -1.5698460810843105e-13  6.5834350204472666e-13  3.6834244920115873e-13  3.4777847159122145e-13  3.4001123753539957e-13  3.9981594147133167e-13  6.1067233933224878e-13  7.5408634569866302e-13  2.7533823775817371e-13  -8.5492570815568369e-13  -1.2846338232432909e-12  4.7443652266280538e-13  3.4334158343374463e-12  4.4222105112839244e-12  2.0622752592114405e-12  -1.3004353831422379e-12  -2.7673601759485735e-12  -2.1457645960045025e-12  -9.8589178540259387e-13  -2.0976221046144990e-13  8.6017612034772279e-14  1.4484532982253745e-13  1.1657211758103596e-13  1.0240374002942005e-13  1.0412852073237961e-13  9.3793231501587781e-14  1.2970412524597526e-13  2.5743901111174713e-13  3.2119740991921260e-13  -2.6741193269555754e-14  -7.2304994698416674e-13  -7.9433907724767217e-13  6.0538548380583504e-13  2.4188045759582608e-12  2.3647488422974986e-12  7.7579731647984648e-14  -2.0731554439486918e-12  -2.1457645960045025e-12  -8.5927549099378449e-13  1.2972491241089268e-13  3.9822707555324422e-13  2.9078049798453418e-13  1.5306764862889957e-13  6.5325619345421034e-14  6.4991059352220299e-14  4.2448127070388318e-14  2.6087237068242840e-14  4.4299967673765056e-14  1.1682275970403048e-13  1.4499098168188363e-13  -7.5317484882649171e-14  -4.7030048103111056e-13  -4.1254546327580908e-13  5.3020652175165177e-13  1.4925419609050315e-12  1.0406904501573779e-12  -6.2979827457082899e-13  -1.6217722952435935e-12  -9.8589178540259346e-13  1.2972491241089263e-13  4.9337045406249624e-13  2.9754423927812351e-13  6.2144805858737371e-14  -4.5239330697956922e-14  5.1693518213047251e-14  2.8962278323549865e-14  1.1063664782781134e-14  3.7867006634220065e-15  1.5007180564745270e-14  5.4854658601409324e-14  6.9336429928275855e-14  -5.4439179002698954e-14  -2.6475604736222495e-13  -1.9451791892596483e-13  3.6249253237714440e-13  8.1559702518038311e-13  3.6200236984912561e-13  -6.3450958005281050e-13  -9.1222965959316176e-13  -2.0976221046145026e-13  3.9822707555324417e-13  2.9754423927812351e-13  2.4428260836935263e-14  -7.1677265299364646e-14  -5.6249348935444070e-14  2.2290718138959870e-14  5.6232531860745984e-15  9.2046523722549082e-16  -1.7490518258962204e-16  5.5327604130254507e-15  2.5652521146046054e-14  3.4411580324074013e-14  -2.8151572469745953e-14  -1.3559263577444645e-13  -8.9732253885689559e-14  2.0785761605698101e-13  4.0504351422128780e-13  8.8174282275029555e-14  -4.2369848268134011e-13  -4.0404169888945544e-13  8.6017612034771723e-14  2.9078049798453418e-13  6.2144805858737346e-14  -7.1677265299364633e-14  -4.1175077559078488e-14  6.7520005698785493e-16  9.6267880209137486e-15  -1.6712429466273858e-16  3.3669816546600860e-16  7.2609597803634728e-17  2.2995893022858476e-15  1.2766113458668836e-14  1.8468779057914509e-14  -1.4575039759097546e-14  -7.2877854788480229e-14  -4.3876868356055822e-14  1.2208445947467415e-13  2.0821990434675835e-13  -4.2872551776141015e-15  -2.6441343796918912e-13  -1.5698460810843092e-13  1.4484532982253717e-13  1.5306764862889957e-13  -4.5239330697956972e-14  -5.6249348935444045e-14  6.7520005698785513e-16  1.6389970890483291e-14  2.4642428260734963e-12  1.4742596662631033e-12  1.2389833126214927e-12  1.0878056030224496e-12  1.3813234986888749e-12  2.5472391465668889e-12  3.3798201530487249e-12  1.1000605615992478e-12  -4.2984194629486888e-12  -6.6693851661312273e-12  2.4383838283725496e-14  1.1482787793630800e-11  1.6086674530046304e-11  9.9016784218196713e-12  1.0792820605822805e-12  -2.4069316220009204e-12  -1.4226742685425583e-12  -2.6462854059292496e-13  -5.5113969599595497e-15  -2.7137164212245031e-14  -2.6252493304463717e-14  1.4742596662631080e-12  7.1479456203949803e-13  6.0797129708699767e-13  5.2450016808543362e-13  6.8575283235048989e-13  1.4047394466613686e-12  1.9903145879695648e-12  6.6278948422127350e-13  -2.7354430173223749e-12  -4.3803027940448657e-12  -3.1146980397428050e-13  6.8251430043053425e-12  9.6084918461435659e-12  5.6902041612894176e-12  4.6499526798785599e-13  -1.2778239666986619e-12  -5.8643690511389540e-13  -1.0029554534490260e-13  -5.1919114727650086e-14  -4.4837915503348728e-14  -1.8988055404302535e-14  1.2389833126214800e-12  6.0797129708699626e-13  5.2558138066306553e-13  4.6253202957249388e-13  6.1008692549237575e-13  1.2115275573418849e-12  1.6617786215872223e-12  4.9278754301218575e-13  -2.3458366093820841e-12  -3.6129213079043597e-12  -8.9155825724659905e-14  5.8731764170266306e-12  8.0777249952044007e-12  4.7202683949711126e-12  3.8395804234106483e-13  -1.0457811563099056e-12  -5.3195923386293365e-13  -1.7673585136101025e-13  -8.6184393314128555e-14  -3.6417141552316629e-14  -7.6293567919732223e-15  1.0878056030224094e-12  5.2450016808542695e-13  4.6253202957250014e-13  4.1137129012462220e-13  5.6071198966860774e-13  1.1290857410332611e-12  1.5200123287947634e-12  3.5534218488827125e-13  -2.3401809575398547e-12  -3.4454137357055970e-12  2.4598660828172412e-14  5.7318665706464999e-12  7.7973433121377650e-12  4.5804118196325887e-12  4.4020549515631687e-13  -9.6941830285409497e-13  -5.3770797748067970e-13  -2.0455799887949010e-13  -8.1910427486217922e-14  -2.5433403265218761e-14  -4.6219817380751320e-15  1.3813234986888291e-12  6.8575283235048605e-13  6.1008692549238847e-13  5.6071198966861400e-13  7.0391279117423608e-13  1.2515568167309692e-12  1.6183326516220498e-12  4.6390891662074882e-13  -2.1542406445202365e-12  -3.1503817598457886e-12  3.6771715051733073e-13  6.0294286386658797e-12  8.0311951372774456e-12  4.7921395758379626e-12  6.2990109122592954e-13  -8.4430710696297467e-13  -4.8068837599114081e-13  -1.7464824616974211e-13  -5.5589123032224980e-14  -1.1440517315105451e-14  -5.4706068044099133e-16  2.5472391465668768e-12  1.4047394466613850e-12  1.2115275573419022e-12  1.1290857410332648e-12  1.2515568167309660e-12  1.7870740751695063e-12  2.1718830500968936e-12  1.0825224829759385e-12  -1.4396313078263249e-12  -2.3663236814604866e-12  1.1293736800630562e-12  6.6635823443374547e-12  8.4879332957344578e-12  5.0866839773318461e-12  7.9983218561540437e-13  -7.6345714425847316e-13  -4.5043378189723570e-13  -1.6090865631692597e-13  -4.4612218388621789e-14  -5.6706529779926190e-15  2.1296655613184624e-15  3.3798201530487750e-12  1.9903145879696011e-12  1.6617786215872418e-12  1.5200123287947604e-12  1.6183326516220357e-12  2.1718830500968863e-12  2.6307759129798592e-12  1.6425088532812045e-12  -8.3264270445529274e-13  -1.8486249007546204e-12  1.4077648242008236e-12  6.6298284802609262e-12  8.1878075196676963e-12  4.6463987091503706e-12  3.4951212902029186e-13  -1.1398207044980342e-12  -7.2058691397235978e-13  -3.3009228408754970e-13  -1.3845439453542818e-13  -5.3291503691606163e-14  -1.8583349939189888e-14  1.1000605615993360e-12  6.6278948422130662e-13  4.9278754301218545e-13  3.5534218488825156e-13  4.6390891662072691e-13  1.0825224829759250e-12  1.6425088532811995e-12  6.9271865047911209e-13  -1.9252488982778046e-12  -3.2872154273891900e-12  -4.4795450291803258e-13  4.4959721420493745e-12  6.0590571690288067e-12  2.8000639434212108e-12  -1.0607782777032320e-12  -2.1048070311536531e-12  -1.3227713478060412e-12  -6.7875044286807276e-13  -3.2879858815777107e-13  -1.5224178800648380e-13  -6.5427552114063611e-14  -4.2984194629486169e-12  -2.7354430173223689e-12  -2.3458366093821132e-12  -2.3401809575398910e-12  -2.1542406445202632e-12  -1.4396313078263378e-12  -8.3264270445529224e-13  -1.9252488982778034e-12  -4.9302882790430046e-12  -6.7588330641843093e-12  -4.1434499798855743e-12  1.0639513004915057e-12  3.3570623301515714e-12  1.0372387102671138e-12  -1.9779553499318932e-12  -2.4461735458327839e-12  -1.3695217252894942e-12  -6.2599654716210123e-13  -2.7215127070911925e-13  -1.1923941467668587e-13  -5.2259720462324047e-14  -6.6693851661312144e-12  -4.3803027940448907e-12  -3.6129213079044005e-12  -3.4454137357056313e-12  -3.1503817598458036e-12  -2.3663236814604838e-12  -1.8486249007546099e-12  -3.2872154273891908e-12  -6.7588330641843190e-12  -8.7769848206912142e-12  -5.6979670771853600e-12  6.2961924801502731e-13  4.2766111666549550e-12  2.9970950401152298e-12  3.9518033088487683e-13  -2.4630901967550860e-13  3.2866188519913969e-13  5.1043544951166546e-13  4.0277094281526238e-13  2.4116414907939950e-13  1.1863321157752222e-13  2.4383838283666931e-14  -3.1146980397432675e-13  -8.9155825724694236e-14  2.4598660828159689e-14  3.6771715051733922e-13  1.1293736800630711e-12  1.4077648242008270e-12  -4.4795450291805520e-13  -4.1434499798855978e-12  -5.6979670771853737e-12  -1.3483226954700722e-12  6.5348139591720201e-12  1.1178750543140957e-11  9.7927515895538749e-12  6.0682104877439831e-12  3.8257271530773462e-12  2.8858735099379354e-12  1.9456600565436595e-12  1.1416097055488635e-12  5.9969113205026956e-13  2.8133514557827127e-13  1.1482787793630678e-11  6.8251430043052778e-12  5.8731764170266104e-12  5.7318665706465080e-12  6.0294286386658861e-12  6.6635823443374635e-12  6.6298284802609149e-12  4.4959721420493390e-12  1.0639513004914770e-12  6.2961924801503519e-13  6.5348139591720605e-12  1.5354020063428001e-11  1.9435693526502959e-11  1.6009660766809781e-11  9.6230688082437408e-12  5.0977547161417156e-12  2.7843584157137045e-12  1.3320845808920957e-12  5.3362411538806804e-13  1.8226785740106172e-13  5.0384341129833255e-14  1.6086674530046188e-11  9.6084918461435223e-12  8.0777249952044039e-12  7.7973433121377877e-12  8.0311951372774504e-12  8.4879332957344481e-12  8.1878075196676737e-12  6.0590571690287793e-12  3.3570623301515653e-12  4.2766111666549946e-12  1.1178750543141002e-11  1.9435693526502998e-11  2.1108927088501453e-11  1.4439221993052648e-11  5.4917834574039004e-12  -8.7450773499493600e-17  -1.8039360606321404e-12  -2.0087759331541764e-12  -1.5330691917289683e-12  -9.3844999013123356e-13  -4.8781516122351549e-13  9.9016784218196147e-12  5.6902041612894104e-12  4.7202683949711376e-12  4.5804118196326105e-12  4.7921395758379642e-12  5.0866839773318356e-12  4.6463987091503593e-12  2.8000639434211950e-12  1.0372387102671257e-12  2.9970950401152678e-12  9.7927515895539153e-12  1.6009660766809797e-11  1.4439221993052632e-11  5.1850619507765833e-12  -4.2077107686384771e-12  -7.9813828233522502e-12  -7.0566660629859494e-12  -4.7870584155193739e-12  -2.7000975007019596e-12  -1.3073345820086115e-12  -5.4899438938383859e-13  1.0792820605822839e-12  4.6499526798787518e-13  3.8395804234109149e-13  4.4020549515632773e-13  6.2990109122592520e-13  7.9983218561540316e-13  3.4951212902029196e-13  -1.0607782777032316e-12  -1.9779553499318811e-12  3.9518033088490288e-13  6.0682104877440033e-12  9.6230688082437375e-12  5.4917834574038867e-12  -4.2077107686384593e-12  -1.1361359846426581e-11  -1.1489449412704306e-11  -7.3923063791510273e-12  -3.4718387887738484e-12  -1.1088123791672145e-12  -1.1207128608688234e-13  1.5156898742746708e-13  -2.4069316220009006e-12  -1.2778239666986419e-12  -1.0457811563098945e-12  -9.6941830285409941e-13  -8.4430710696298325e-13  -7.6345714425847054e-13  -1.1398207044980263e-12  -2.1048070311536515e-12  -2.4461735458327799e-12  -2.4630901967549730e-13  3.8257271530773486e-12  5.0977547161416995e-12  -8.7450773524737149e-17  -7.9813828233522422e-12  -1.1489449412704309e-11  -8.2573297521246382e-12  -2.7743178831770110e-12  5.4105411280711570e-13  1.4412375674731056e-12  1.1458956241151891e-12  6.3551316218956997e-13  -1.4226742685425332e-12  -5.8643690511388046e-13  -5.3195923386293143e-13  -5.3770797748068879e-13  -4.8068837599114899e-13  -4.5043378189723101e-13  -7.2058691397235332e-13  -1.3227713478060420e-12  -1.3695217252894936e-12  3.2866188519914564e-13  2.8858735099379346e-12  2.7843584157136920e-12  -1.8039360606321477e-12  -7.0566660629859414e-12  -7.3923063791510225e-12  -2.7743178831770102e-12  1.6888325764442017e-12  2.8014825203346340e-12  1.9055498681838807e-12  8.1031340746472781e-13  1.9119750645608958e-13  -2.6462854059290537e-13  -1.0029554534489356e-13  -1.7673585136101260e-13  -2.0455799887949808e-13  -1.7464824616974564e-13  -1.6090865631692110e-13  -3.3009228408754668e-13  -6.7875044286807458e-13  -6.2599654716210062e-13  5.1043544951166899e-13  1.9456600565436574e-12  1.3320845808920878e-12  -2.0087759331541836e-12  -4.7870584155193691e-12  -3.4718387887738472e-12  5.4105411280711347e-13  2.80148252033463