<?xml version="1.0"?>
<VTKFile type="UnstructuredGrid"  version="0.1"  >
<UnstructuredGrid>
<Piece  NumberOfPoints="9261" NumberOfCells="48000">
<Points>
<DataArray  type="Float64"  NumberOfComponents="3"  format="ascii">-2 -2 -2  -1.8 -2 -2  -1.6 -2 -2  -1.4 -2 -2  -1.2 -2 -2  -1 -2 -2  -0.8 -2 -2  -0.6000000000000001 -2 -2  -0.3999999999999999 -2 -2  -0.2 -2 -2  0 -2 -2  0.2000000000000002 -2 -2  0.3999999999999999 -2 -2  0.6000000000000001 -2 -2  0.7999999999999998 -2 -2  1 -2 -2  1.2 -2 -2  1.4 -2 -2  1.6 -2 -2  1.8 -2 -2  2 -2 -2  -2 -1.8 -2  -1.8 -1.8 -2  -1.6 -1.8 -2  -1.4 -1.8 -2  -1.2 -1.8 -2  -1 -1.8 -2  -0.8 -1.8 -2  -0.6000000000000001 -1.8 -2  -0.3999999999999999 -1.8 -2  -0.2 -1.8 -2  0 -1.8 -2  0.2000000000000002 -1.8 -2  0.3999999999999999 -1.8 -2  0.6000000000000001 -1.8 -2  0.7999999999999998 -1.8 -2  1 -1.8 -2  1.2 -1.8 -2  1.4 -1.8 -2  1.6 -1.8 -2  1.8 -1.8 -2  2 -1.8 -2  -2 -1.6 -2  -1.8 -1.6 -2  -1.6 -1.6 -2  -1.4 -1.6 -2  -1.2 -1.6 -2  -1 -1.6 -2  -0.8 -1.6 -2  -0.6000000000000001 -1.6 -2  -0.3999999999999999 -1.6 -2  -0.2 -1.6 -2  0 -1.6 -2  0.2000000000000002 -1.6 -2  0.3999999999999999 -1.6 -2  0.6000000000000001 -1.6 -2  0.7999999999999998 -1.6 -2  1 -1.6 -2  1.2 -1.6 -2  1.4 -1.6 -2  1.6 -1.6 -2  1.8 -1.6 -2  2 -1.6 -2  -2 -1.4 -2  -1.8 -1.4 -2  -1.6 -1.4 -2  -1.4 -1.4 -2  -1.2 -1.4 -2  -1 -1.4 -2  -0.8 -1.4 -2  -0.6000000000000001 -1.4 -2  -0.3999999999999999 -1.4 -2  -0.2 -1.4 -2  0 -1.4 -2  0.2000000000000002 -1.4 -2  0.3999999999999999 -1.4 -2  0.6000000000000001 -1.4 -2  0.7999999999999998 -1.4 -2  1 -1.4 -2  1.2 -1.4 -2  1.4 -1.4 -2  1.6 -1.4 -2  1.8 -1.4 -2  2 -1.4 -2  -2 -1.2 -2  -1.8 -1.2 -2  -1.6 -1.2 -2  -1.4 -1.2 -2  -1.2 -1.2 -2  -1 -1.2 -2  -0.8 -1.2 -2  -0.6000000000000001 -1.2 -2  -0.3999999999999999 -1.2 -2  -0.2 -1.2 -2  0 -1.2 -2  0.2000000000000002 -1.2 -2  0.3999999999999999 -1.2 -2  0.6000000000000001 -1.2 -2  0.7999999999999998 -1.2 -2  1 -1.2 -2  1.2 -1.2 -2  1.4 -1.2 -2  1.6 -1.2 -2  1.8 -1.2 -2  2 -1.2 -2  -2 -1 -2  -1.8 -1 -2  -1.6 -1 -2  -1.4 -1 -2  -1.2 -1 -2  -1 -1 -2  -0.8 -1 -2  -0.6000000000000001 -1 -2  -0.3999999999999999 -1 -2  -0.2 -1 -2  0 -1 -2  0.2000000000000002 -1 -2  0.3999999999999999 -1 -2  0.6000000000000001 -1 -2  0.7999999999999998 -1 -2  1 -1 -2  1.2 -1 -2  1.4 -1 -2  1.6 -1 -2  1.8 -1 -2  2 -1 -2  -2 -0.8 -2  -1.8 -0.8 -2  -1.6 -0.8 -2  -1.4 -0.8 -2  -1.2 -0.8 -2  -1 -0.8 -2  -0.8 -0.8 -2  -0.6000000000000001 -0.8 -2  -0.3999999999999999 -0.8 -2  -0.2 -0.8 -2  0 -0.8 -2  0.2000000000000002 -0.8 -2  0.3999999999999999 -0.8 -2  0.6000000000000001 -0.8 -2  0.7999999999999998 -0.8 -2  1 -0.8 -2  1.2 -0.8 -2  1.4 -0.8 -2  1.6 -0.8 -2  1.8 -0.8 -2  2 -0.8 -2  -2 -0.6000000000000001 -2  -1.8 -0.6000000000000001 -2  -1.6 -0.6000000000000001 -2  -1.4 -0.6000000000000001 -2  -1.2 -0.6000000000000001 -2  -1 -0.6000000000000001 -2  -0.8 -0.6000000000000001 -2  -0.6000000000000001 -0.6000000000000001 -2  -0.3999999999999999 -0.6000000000000001 -2  -0.2 -0.6000000000000001 -2  0 -0.6000000000000001 -2  0.2000000000000002 -0.6000000000000001 -2  0.3999999999999999 -0.6000000000000001 -2  0.6000000000000001 -0.6000000000000001 -2  0.7999999999999998 -0.6000000000000001 -2  1 -0.6000000000000001 -2  1.2 -0.6000000000000001 -2  1.4 -0.6000000000000001 -2  1.6 -0.6000000000000001 -2  1.8 -0.6000000000000001 -2  2 -0.6000000000000001 -2  -2 -0.3999999999999999 -2  -1.8 -0.3999999999999999 -2  -1.6 -0.3999999999999999 -2  -1.4 -0.3999999999999999 -2  -1.2 -0.3999999999999999 -2  -1 -0.3999999999999999 -2  -0.8 -0.3999999999999999 -2  -0.6000000000000001 -0.3999999999999999 -2  -0.3999999999999999 -0.3999999999999999 -2  -0.2 -0.3999999999999999 -2  0 -0.3999999999999999 -2  0.2000000000000002 -0.3999999999999999 -2  0.3999999999999999 -0.3999999999999999 -2  0.6000000000000001 -0.3999999999999999 -2  0.7999999999999998 -0.3999999999999999 -2  1 -0.3999999999999999 -2  1.2 -0.3999999999999999 -2  1.4 -0.3999999999999999 -2  1.6 -0.3999999999999999 -2  1.8 -0.3999999999999999 -2  2 -0.3999999999999999 -2  -2 -0.2 -2  -1.8 -0.2 -2  -1.6 -0.2 -2  -1.4 -0.2 -2  -1.2 -0.2 -2  -1 -0.2 -2  -0.8 -0.2 -2  -0.6000000000000001 -0.2 -2  -0.3999999999999999 -0.2 -2  -0.2 -0.2 -2  0 -0.2 -2  0.2000000000000002 -0.2 -2  0.3999999999999999 -0.2 -2  0.6000000000000001 -0.2 -2  0.7999999999999998 -0.2 -2  1 -0.2 -2  1.2 -0.2 -2  1.4 -0.2 -2  1.6 -0.2 -2  1.8 -0.2 -2  2 -0.2 -2  -2 0 -2  -1.8 0 -2  -1.6 0 -2  -1.4 0 -2  -1.2 0 -2  -1 0 -2  -0.8 0 -2  -0.6000000000000001 0 -2  -0.3999999999999999 0 -2  -0.2 0 -2  0 0 -2  0.2000000000000002 0 -2  0.3999999999999999 0 -2  0.6000000000000001 0 -2  0.7999999999999998 0 -2  1 0 -2  1.2 0 -2  1.4 0 -2  1.6 0 -2  1.8 0 -2  2 0 -2  -2 0.2000000000000002 -2  -1.8 0.2000000000000002 -2  -1.6 0.2000000000000002 -2  -1.4 0.2000000000000002 -2  -1.2 0.2000000000000002 -2  -1 0.2000000000000002 -2  -0.8 0.2000000000000002 -2  -0.6000000000000001 0.2000000000000002 -2  -0.3999999999999999 0.2000000000000002 -2  -0.2 0.2000000000000002 -2  0 0.2000000000000002 -2  0.2000000000000002 0.2000000000000002 -2  0.3999999999999999 0.2000000000000002 -2  0.6000000000000001 0.2000000000000002 -2  0.7999999999999998 0.2000000000000002 -2  1 0.2000000000000002 -2  1.2 0.2000000000000002 -2  1.4 0.2000000000000002 -2  1.6 0.2000000000000002 -2  1.8 0.2000000000000002 -2  2 0.2000000000000002 -2  -2 0.3999999999999999 -2  -1.8 0.3999999999999999 -2  -1.6 0.3999999999999999 -2  -1.4 0.3999999999999999 -2  -1.2 0.3999999999999999 -2  -1 0.3999999999999999 -2  -0.8 0.3999999999999999 -2  -0.6000000000000001 0.3999999999999999 -2  -0.3999999999999999 0.3999999999999999 -2  -0.2 0.3999999999999999 -2  0 0.3999999999999999 -2  0.2000000000000002 0.3999999999999999 -2  0.3999999999999999 0.3999999999999999 -2  0.6000000000000001 0.3999999999999999 -2  0.7999999999999998 0.3999999999999999 -2  1 0.3999999999999999 -2  1.2 0.3999999999999999 -2  1.4 0.3999999999999999 -2  1.6 0.3999999999999999 -2  1.8 0.3999999999999999 -2  2 0.3999999999999999 -2  -2 0.6000000000000001 -2  -1.8 0.6000000000000001 -2  -1.6 0.6000000000000001 -2  -1.4 0.6000000000000001 -2  -1.2 0.6000000000000001 -2  -1 0.6000000000000001 -2  -0.8 0.6000000000000001 -2  -0.6000000000000001 0.6000000000000001 -2  -0.3999999999999999 0.6000000000000001 -2  -0.2 0.6000000000000001 -2  0 0.6000000000000001 -2  0.2000000000000002 0.6000000000000001 -2  0.3999999999999999 0.6000000000000001 -2  0.6000000000000001 0.6000000000000001 -2  0.7999999999999998 0.6000000000000001 -2  1 0.6000000000000001 -2  1.2 0.6000000000000001 -2  1.4 0.6000000000000001 -2  1.6 0.6000000000000001 -2  1.8 0.6000000000000001 -2  2 0.6000000000000001 -2  -2 0.7999999999999998 -2  -1.8 0.7999999999999998 -2  -1.6 0.7999999999999998 -2  -1.4 0.7999999999999998 -2  -1.2 0.7999999999999998 -2  -1 0.7999999999999998 -2  -0.8 0.7999999999999998 -2  -0.6000000000000001 0.7999999999999998 -2  -0.3999999999999999 0.7999999999999998 -2  -0.2 0.7999999999999998 -2  0 0.7999999999999998 -2  0.2000000000000002 0.7999999999999998 -2  0.3999999999999999 0.7999999999999998 -2  0.6000000000000001 0.7999999999999998 -2  0.7999999999999998 0.7999999999999998 -2  1 0.7999999999999998 -2  1.2 0.7999999999999998 -2  1.4 0.7999999999999998 -2  1.6 0.7999999999999998 -2  1.8 0.7999999999999998 -2  2 0.7999999999999998 -2  -2 1 -2  -1.8 1 -2  -1.6 1 -2  -1.4 1 -2  -1.2 1 -2  -1 1 -2  -0.8 1 -2  -0.6000000000000001 1 -2  -0.3999999999999999 1 -2  -0.2 1 -2  0 1 -2  0.2000000000000002 1 -2  0.3999999999999999 1 -2  0.6000000000000001 1 -2  0.7999999999999998 1 -2  1 1 -2  1.2 1 -2  1.4 1 -2  1.6 1 -2  1.8 1 -2  2 1 -2  -2 1.2 -2  -1.8 1.2 -2  -1.6 1.2 -2  -1.4 1.2 -2  -1.2 1.2 -2  -1 1.2 -2  -0.8 1.2 -2  -0.6000000000000001 1.2 -2  -0.3999999999999999 1.2 -2  -0.2 1.2 -2  0 1.2 -2  0.2000000000000002 1.2 -2  0.3999999999999999 1.2 -2  0.6000000000000001 1.2 -2  0.7999999999999998 1.2 -2  1 1.2 -2  1.2 1.2 -2  1.4 1.2 -2  1.6 1.2 -2  1.8 1.2 -2  2 1.2 -2  -2 1.4 -2  -1.8 1.4 -2  -1.6 1.4 -2  -1.4 1.4 -2  -1.2 1.4 -2  -1 1.4 -2  -0.8 1.4 -2  -0.6000000000000001 1.4 -2  -0.3999999999999999 1.4 -2  -0.2 1.4 -2  0 1.4 -2  0.2000000000000002 1.4 -2  0.3999999999999999 1.4 -2  0.6000000000000001 1.4 -2  0.7999999999999998 1.4 -2  1 1.4 -2  1.2 1.4 -2  1.4 1.4 -2  1.6 1.4 -2  1.8 1.4 -2  2 1.4 -2  -2 1.6 -2  -1.8 1.6 -2  -1.6 1.6 -2  -1.4 1.6 -2  -1.2 1.6 -2  -1 1.6 -2  -0.8 1.6 -2  -0.6000000000000001 1.6 -2  -0.3999999999999999 1.6 -2  -0.2 1.6 -2  0 1.6 -2  0.2000000000000002 1.6 -2  0.3999999999999999 1.6 -2  0.6000000000000001 1.6 -2  0.7999999999999998 1.6 -2  1 1.6 -2  1.2 1.6 -2  1.4 1.6 -2  1.6 1.6 -2  1.8 1.6 -2  2 1.6 -2  -2 1.8 -2  -1.8 1.8 -2  -1.6 1.8 -2  -1.4 1.8 -2  -1.2 1.8 -2  -1 1.8 -2  -0.8 1.8 -2  -0.6000000000000001 1.8 -2  -0.3999999999999999 1.8 -2  -0.2 1.8 -2  0 1.8 -2  0.2000000000000002 1.8 -2  0.3999999999999999 1.8 -2  0.6000000000000001 1.8 -2  0.7999999999999998 1.8 -2  1 1.8 -2  1.2 1.8 -2  1.4 1.8 -2  1.6 1.8 -2  1.8 1.8 -2  2 1.8 -2  -2 2 -2  -1.8 2 -2  -1.6 2 -2  -1.4 2 -2  -1.2 2 -2  -1 2 -2  -0.8 2 -2  -0.6000000000000001 2 -2  -0.3999999999999999 2 -2  -0.2 2 -2  0 2 -2  0.2000000000000002 2 -2  0.3999999999999999 2 -2  0.6000000000000001 2 -2  0.7999999999999998 2 -2  1 2 -2  1.2 2 -2  1.4 2 -2  1.6 2 -2  1.8 2 -2  2 2 -2  -2 -2 -1.8  -1.8 -2 -1.8  -1.6 -2 -1.8  -1.4 -2 -1.8  -1.2 -2 -1.8  -1 -2 -1.8  -0.8 -2 -1.8  -0.6000000000000001 -2 -1.8  -0.3999999999999999 -2 -1.8  -0.2 -2 -1.8  0 -2 -1.8  0.2000000000000002 -2 -1.8  0.3999999999999999 -2 -1.8  0.6000000000000001 -2 -1.8  0.7999999999999998 -2 -1.8  1 -2 -1.8  1.2 -2 -1.8  1.4 -2 -1.8  1.6 -2 -1.8  1.8 -2 -1.8  2 -2 -1.8  -2 -1.8 -1.8  -1.8 -1.8 -1.8  -1.6 -1.8 -1.8  -1.4 -1.8 -1.8  -1.2 -1.8 -1.8  -1 -1.8 -1.8  -0.8 -1.8 -1.8  -0.6000000000000001 -1.8 -1.8  -0.3999999999999999 -1.8 -1.8  -0.2 -1.8 -1.8  0 -1.8 -1.8  0.2000000000000002 -1.8 -1.8  0.3999999999999999 -1.8 -1.8  0.6000000000000001 -1.8 -1.8  0.7999999999999998 -1.8 -1.8  1 -1.8 -1.8  1.2 -1.8 -1.
[...]
<PointData  Scalars="uA"> 
<DataArray  type="Float64"  Name="uA"  format="ascii">-7.7024338631205505e-09  -7.0828108177233857e-09  -5.7681911484341112e-09  -4.2447273487982621e-09  -2.8291855754452797e-09  -1.6868973718342390e-09  -8.5996726525761899e-10  -3.1336203309361825e-10  2.1262656869166408e-11  2.1660746171165268e-10  3.3568478927032864e-10  4.2381613301315119e-10  4.9563695313722880e-10  5.1382450248442216e-10  3.7471485914060575e-10  -6.3712527678763987e-11  -8.7285560554987864e-10  -1.8529830905907251e-09  -2.2793488864543997e-09  -6.8057085888684626e-10  5.0818416947408564e-09  -7.0828108177233857e-09  -5.9299510316786543e-09  -3.8807475925900151e-09  -1.7216204299573985e-09  1.6862453710986169e-10  1.6332434096808656e-09  2.6623726059999316e-09  3.3271885310906730e-09  3.7267581703588049e-09  3.9554799838144449e-09  4.0883751991701828e-09  4.1739199532125958e-09  4.2238885966774747e-09  4.1990831001854300e-09  4.0081110269068519e-09  3.5537504187598936e-09  2.8595890137588013e-09  2.2767922639831560e-09  2.7225168244143785e-09  5.8949300027103475e-09  1.4644154663533223e-08  -5.7681911484341046e-09  -3.8807475925900109e-09  -1.2786980707465615e-09  1.3096938776749196e-09  3.5096998356924761e-09  5.1805346893321800e-09  6.3369089489507097e-09  7.0748780502872282e-09  7.5137047488940493e-09  7.7614724272872450e-09  7.9004431135998074e-09  7.9812481860238804e-09  8.0159333224989626e-09  7.9698683195743894e-09  7.7698148122210476e-09  7.3600200800129846e-09  6.8330029335946973e-09  6.6274830440169361e-09  7.7431220452314182e-09  1.1947212867687097e-08  2.2311197788727488e-08  -4.2447273487982564e-09  -1.7216204299573944e-09  1.3096938776749191e-09  4.2115787262124814e-09  6.6316288130513601e-09  8.4469482629063423e-09  9.6917022235685952e-09  1.0480057771891798e-08  1.0945549699379353e-08  1.1205821723060114e-08  1.1348345819832268e-08  1.1425956731418140e-08  1.1452547939221278e-08  1.1399418279334515e-08  1.1209130194212207e-08  1.0856402809373717e-08  1.0478646124308915e-08  1.0565329384340658e-08  1.2160033848010044e-08  1.7080161929166695e-08  2.8607019574606176e-08  -2.8291855754452747e-09  1.6862453710985797e-10  3.5096998356924653e-09  6.6316288130513635e-09  9.2036106154603556e-09  1.1117761086564376e-08  1.2422607923382937e-08  1.3245029937321064e-08  1.3728386617294388e-08  1.3996895633815561e-08  1.4141772794256209e-08  1.4217856876310753e-08  1.4241210286452285e-08  1.4188322022478199e-08  1.4013283765178178e-08  1.3710880789701070e-08  1.3445981169235736e-08  1.3737570269391443e-08  1.5656079195764280e-08  2.1059144057707660e-08  3.3388446086296482e-08  -1.6868973718342390e-09  1.6332434096808565e-09  5.1805346893321568e-09  8.4469482629063439e-09  1.1117761086564349e-08  1.3095795819935944e-08  1.4439304376449058e-08  1.5283539699478784e-08  1.5778257622324837e-08  1.6051965276477102e-08  1.6198418527602918e-08  1.6274025711657861e-08  1.6296691501925484e-08  1.6246722530951119e-08  1.6085786553288774e-08  1.5820940028798479e-08  1.5633040804231676e-08  1.6057945878274718e-08  1.8182545460248642e-08  2.3892428288226201e-08  3.6735172162189524e-08  -8.5996726525762354e-10  2.6623726059999171e-09  6.3369089489506857e-09  9.6917022235685754e-09  1.2422607923382894e-08  1.4439304376449042e-08  1.5806113690430322e-08  1.6663436130712243e-08  1.7164928935404998e-08  1.7441720971913193e-08  1.7589168256051178e-08  1.7664765285368041e-08  1.7687743224379604e-08  1.7640928578790923e-08  1.7490604552214872e-08  1.7250894488239862e-08  1.7111520987285907e-08  1.7617585586050611e-08  1.9865423518601016e-08  2.5757646962626430e-08  3.8905311872462352e-08  -3.1336203309363035e-10  3.3271885310906565e-09  7.0748780502872141e-09  1.0480057771891771e-08  1.3245029937321026e-08  1.5283539699478754e-08  1.6663436130712220e-08  1.7528070283431679e-08  1.8033316554109083e-08  1.8311791476524800e-08  1.8459781193543062e-08  1.8535465215330353e-08  1.8558947643584660e-08  1.8514615774592119e-08  1.8371416427392116e-08  1.8147325025220801e-08  1.8036687723120501e-08  1.8589303271449822e-08  2.0906378437001387e-08  2.6899756305804614e-08  4.0215597975960482e-08  2.1262656869153173e-11  3.7267581703587883e-09  7.5137047488940294e-09  1.0945549699379333e-08  1.3728386617294361e-08  1.5778257622324817e-08  1.7164928935404979e-08  1.8033316554109097e-08  1.8540450767883800e-08  1.8819719300093019e-08  1.8967910886075838e-08  1.9043628632858458e-08  1.9067555888457947e-08  1.9025043265971340e-08  1.8886520295060382e-08  1.8671907497039870e-08  1.8577682342668552e-08  1.9155642909229287e-08  2.1509062262082864e-08  2.7554256066455967e-08  4.0955613185561088e-08  2.1660746171164120e-10  3.9554799838144367e-09  7.7614724272872268e-09  1.1205821723060094e-08  1.3996895633815546e-08  1.6051965276477082e-08  1.7441720971913190e-08  1.8311791476524810e-08  1.8819719300093045e-08  1.9099242802972089e-08  1.9247424389506403e-08  1.9323176653900985e-08  1.9347629869147062e-08  1.9306761472452974e-08  1.9171754923865485e-08  1.8963266168343710e-08  1.8878320197423751e-08  1.9469037972297204e-08  2.1839164332139076e-08  2.7907128768580717e-08  4.1346925075357761e-08  3.3568478927032192e-10  4.0883751991701778e-09  7.9004431135997958e-09  1.1348345819832235e-08  1.4141772794256189e-08  1.6198418527602904e-08  1.7589168256051178e-08  1.8459781193543092e-08  1.8967910886075895e-08  1.9247424389506456e-08  1.9395584870958535e-08  1.9471621204063338e-08  1.9497073081710631e-08  1.9458295217663379e-08  1.9326613071428453e-08  1.9122410580162269e-08  1.9042024201481504e-08  1.9636788068554136e-08  2.2010293566509182e-08  2.8082746968927863e-08  4.1534859544093333e-08  4.2381613301314985e-10  4.1739199532125999e-09  7.9812481860238854e-09  1.1425956731418141e-08  1.4217856876310759e-08  1.6274025711657871e-08  1.7664765285368068e-08  1.8535465215330389e-08  1.9043628632858525e-08  1.9323176653901041e-08  1.9471621204063388e-08  1.9548575015115844e-08  1.9575917129061271e-08  1.9539994730058471e-08  1.9411473103551316e-08  1.9209332876434040e-08  1.9128107519947372e-08  1.9717804455139160e-08  2.2082471741062485e-08  2.8145993860974415e-08  4.1597248662694025e-08  4.9563695313723200e-10  4.2238885966774789e-09  8.0159333224989626e-09  1.1452547939221308e-08  1.4241210286452288e-08  1.6296691501925494e-08  1.7687743224379660e-08  1.8558947643584713e-08  1.9067555888457986e-08  1.9347629869147111e-08  1.9497073081710660e-08  1.9575917129061304e-08  1.9606107872647103e-08  1.9573246272572415e-08  1.9446155444968874e-08  1.9241116091532525e-08  1.9150096528305610e-08  1.9722382637710614e-08  2.2065197889671361e-08  2.8111117508739748e-08  4.1562678750764023e-08  5.1382450248441885e-10  4.1990831001854209e-09  7.9698683195743795e-09  1.1399418279334492e-08  1.4188322022478181e-08  1.6246722530951106e-08  1.7640928578790930e-08  1.8514615774592159e-08  1.9025043265971367e-08  1.9306761472452997e-08  1.9458295217663422e-08  1.9539994730058541e-08  1.9573246272572488e-08  1.9541706742692606e-08  1.9410873957153752e-08  1.9193271039413722e-08  1.9078704333549379e-08  1.9618681128889562e-08  2.1929849936551664e-08  2.7963012349805120e-08  4.1444834089160923e-08  3.7471485914060854e-10  4.0081110269068553e-09  7.7698148122210476e-09  1.1209130194212202e-08  1.4013283765178165e-08  1.6085786553288771e-08  1.7490604552214885e-08  1.8371416427392112e-08  1.8886520295060375e-08  1.9171754923865465e-08  1.9326613071428486e-08  1.9411473103551389e-08  1.9446155444968947e-08  1.9410873957153765e-08  1.9266523474593023e-08  1.9022014723164663e-08  1.8867962157188154e-08  1.9365038637359147e-08  2.1650780243322280e-08  2.7709991206669817e-08  4.1311807567162774e-08  -6.3712527678757886e-11  3.5537504187598961e-09  7.3600200800129871e-09  1.0856402809373716e-08  1.3710880789701030e-08  1.5820940028798459e-08  1.7250894488239829e-08  1.8147325025220781e-08  1.8671907497039857e-08  1.8963266168343710e-08  1.9122410580162309e-08  1.9209332876434113e-08  1.9241116091532601e-08  1.9193271039413759e-08  1.9022014723164657e-08  1.8735455973200157e-08  1.8532306974120240e-08  1.8995057294337779e-08  2.1300185269561957e-08  2.7490165216857527e-08  4.1409085847163577e-08  -8.7285560554987026e-10  2.8595890137588063e-09  6.8330029335946981e-09  1.0478646124308885e-08  1.3445981169235695e-08  1.5633040804231606e-08  1.7111520987285848e-08  1.8036687723120455e-08  1.8577682342668526e-08  1.8878320197423754e-08  1.9042024201481544e-08  1.9128107519947458e-08  1.9150096528305699e-08  1.9078704333549405e-08  1.8867962157188167e-08  1.8532306974120230e-08  1.8291754932323709e-08  1.8770033369531903e-08  2.1207460001561234e-08  2.7736526955340903e-08  4.2333427419195679e-08  -1.8529830905907212e-09  2.2767922639831518e-09  6.6274830440169196e-09  1.0565329384340627e-08  1.3737570269391396e-08  1.6057945878274642e-08  1.7617585586050532e-08  1.8589303271449769e-08  1.9155642909229274e-08  1.9469037972297228e-08  1.9636788068554206e-08  1.9717804455139246e-08  1.9722382637710703e-08  1.9618681128889575e-08  1.9365038637359166e-08  1.8995057294337792e-08  1.8770033369531903e-08  1.9380840194740887e-08  2.2161508820813888e-08  2.9373561447377393e-08  4.5218036406731232e-08  -2.2793488864543943e-09  2.7225168244143748e-09  7.7431220452314050e-09  1.2160033848010015e-08  1.5656079195764237e-08  1.8182545460248569e-08  1.9865423518600930e-08  2.0906378437001334e-08  2.1509062262082867e-08  2.1839164332139116e-08  2.2010293566509251e-08  2.2082471741062574e-08  2.2065197889671454e-08  2.1929849936551717e-08  2.1650780243322326e-08  2.1300185269561964e-08  2.1207460001561228e-08  2.2161508820813902e-08  2.5620535425379386e-08  3.4012623063179205e-08  5.1885632341691034e-08  -6.8057085888683902e-10  5.8949300027103417e-09  1.1947212867687071e-08  1.7080161929166655e-08  2.1059144057707613e-08  2.3892428288226162e-08  2.5757646962626337e-08  2.6899756305804531e-08  2.7554256066455957e-08  2.7907128768580770e-08  2.8082746968927962e-08  2.8145993860974551e-08  2.8111117508739873e-08  2.7963012349805245e-08  2.7709991206669854e-08  2.7490165216857540e-08  2.7736526955340896e-08  2.9373561447377390e-08  3.4012623063179192e-08  4.4274310001010712e-08  6.5205116041473080e-08  5.0818416947408589e-09  1.4644154663533212e-08  2.2311197788727461e-08  2.8607019574606143e-08  3.3388446086296429e-08  3.6735172162189465e-08  3.8905311872462233e-08  4.0215597975960403e-08  4.0955613185561095e-08  4.1346925075357833e-08  4.1534859544093466e-08  4.1597248662694197e-08  4.1562678750764188e-08  4.1444834089161102e-08  4.1311807567162866e-08  4.1409085847163616e-08  4.2333427419195672e-08  4.5218036406731219e-08  5.1885632341691014e-08  6.5205116041473093e-08  9.2319370958587199e-08  -1.6620971682544990e-08  -1.2600555056953592e-08  -8.2525967636909385e-09  -4.1288419704676944e-09  -6.7652365201856387e-10  1.9242912823998033e-09  3.7133498932579575e-09  4.8493742103087560e-09  5.5231999555471237e-09  5.9065933891329857e-09  6.1305888956701612e-09  6.2742766617908295e-09  6.3469546110697893e-09  6.2650627649828295e-09  5.8567146330336033e-09  4.9519741117296488e-09  3.6063794708483527e-09  2.4459180090055347e-09  3.0484527659328161e-09  8.2658916474228249e-09  2.2527273306123396e-08  -1.2600555056953589e-08  -7.6711216921468982e-09  -2.2759976887310068e-09  2.6877989019015561e-09  6.7283954423901421e-09  9.7057601674872978e-09  1.1718185984254787e-08  1.2977738294994778e-08  1.3715149548860406e-08  1.4127140238343547e-08  1.4356230591675013e-08  1.4483237774894166e-08  1.4517238967856265e-08  1.4386938303273821e-08  1.3965822423976939e-08  1.3182817401803344e-08  1.2253687704428008e-08  1.2005396424060611e-08  1.4180782612710075e-08  2.1526350050110128e-08  3.7196447710828307e-08  -8.2525967636909252e-09  -2.2759976887310018e-09  3.9779400196743015e-09  9.5955996355695440e-09  1.4093098587745383e-08  1.7365088830762945e-08  1.9553740534442996e-08  2.0911346894400024e-08  2.1699181023136072e-08  2.2133520081646926e-08  2.2366856196758492e-08  2.2483871349396664e-08  2.2497872870891886e-08  2.2352717497509259e-08  2.1961387387907177e-08  2.1327339077683217e-08  2.0774138649351679e-08  2.1244400681550582e-08  2.4546059708674753e-08  3.3349352069844904e-08  5.0534607092074261e-08  -4.1288419704676969e-09  2.6877989019015487e-09  9.5955996355695374e-09  1.5695963782841924e-08  2.0526712061685436e-08  2.4012930629817405e-08  2.6329731911345762e-08  2.7758615465743783e-08  2.8582937712174570e-08  2.9033317582366502e-08  2.9270136414787058e-08  2.9382352300172745e-08  2.9388716604047678e-08  2.9246716922537099e-08  2.8899073909518746e-08  2.8399850687974488e-08  2.8139670336695123e-08  2.9126405311737115e-08  3.3201753319739889e-08  4.3013472297304668e-08  6.1360773613271984e-08  -6.7652365201856221e-10  6.7283954423901338e-09  1.4093098587745337e-08  2.0526712061685449e-08  2.5585616679636306e-08  2.9217883914537966e-08  3.1621859781617091e-08  3.3099115113270862e-08  3.3948087882991063e-08  3.4409296897412630e-08  3.4648891737044591e-08  3.4759544841291938e-08  3.4764889112137324e-08  3.4632776996643183e-08  3.4326120084307146e-08  3.3930830483046419e-08  3.3877234865572938e-08  3.5210174627080214e-08  3.9792301513364193e-08  5.0268991416318750e-08  6.9396486729788047e-08  1.9242912823997933e-09  9.7057601674872697e-09  1.7365088830762889e-08  2.4012930629817362e-08  2.9217883914537896e-08  3.2943342100782074e-08  3.5402804763485925e-08  3.6910759866547109e-08  3.7775315365752238e-08  3.8243395688823879e-08  3.8485048170007055e-08  3.8595721663163499e-08  3.8602713052940720e-08  3.8480911142313837e-08  3.8205877657406777e-08  3.7882367753679821e-08  3.7963223886218977e-08  3.9513905507368188e-08  4.4409910338748596e-08  5.5298077785828541e-08  7.4904266294346390e-08  3.7133498932579302e-09  1.1718185984254752e-08  1.9553740534442946e-08  2.6329731911345686e-08  3.1621859781616972e-08  3.5402804763485899e-08  3.7895218760273731e-08  3.9421343859570404e-08  4.0295081604647436e-08  4.0767222284162879e-08  4.1010245234488429e-08  4.1121454342501895e-08  4.1130596464527522e-08  4.1016950987820073e-08  4.0763495974671880e-08  4.0485523707388819e-08  4.0648041026239292e-08  4.2327494504872768e-08  4.7406489560244752e-08  5.8532625394986162e-08  7.8410016895076819e-08  4.8493742103087205e-09  1.2977738294994743e-08  2.0911346894399991e-08  2.7758615465743760e-08  3.3099115113270762e-08  3.6910759866547016e-08  3.9421343859570325e-08  4.0957440573464806e-08  4.1836177635672695e-08  4.2310508836367919e-08  4.2554317386687094e-08  4.2666050675991269e-08  4.2676980945171507e-08  4.2568971040882081e-08  4.2329107910474814e-08  4.2078233279694792e-08  4.2287495321201414e-08  4.4038702413618608e-08  4.9217790292160050e-08  6.0472041832490375e-08  8.0491021826227065e-08  5.5231999555470940e-09  1.3715149548860370e-08  2.1699181023136026e-08  2.8582937712174497e-08  3.3948087882991003e-08  3.7775315365752185e-08  4.0295081604647396e-08  4.1836177635672735e-08  4.2717372446222936e-08  4.3192731120406712e-08  4.3436900859128990e-08  4.3549022891481804e-08  4.3561313187068357e-08  4.3457111824710276e-08  4.3225642520667795e-08  4.2990384833078298e-08  4.3225157952416411e-08  4.5013880315181539e-08  5.0243587221770901e-08  6.1560845640677760e-08  8.1646598410954830e-08  5.9065933891329633e-09  1.4127140238343530e-08  2.2133520081646896e-08  2.9033317582366489e-08  3.4409296897412583e-08  3.8243395688823839e-08  4.0767222284162846e-08  4.2310508836367925e-08  4.3192731120406764e-08  4.3668469322128719e-08  4.3912800035408406e-08  4.4025341484554996e-08  4.4038940579408899e-08  4.3937748080508257e-08  4.3711892506388265e-08  4.3485671514369824e-08  4.3733445837657078e-08  4.5539346904922560e-08  5.0790462716510155e-08  6.2133202095397466e-08  8.2245099321841916e-08  6.1305888956701670e-09  1.4356230591675018e-08  2.2366856196758492e-08  2.9270136414787052e-08  3.4648891737044538e-08  3.8485048170007035e-08  4.1010245234488435e-08  4.2554317386687154e-08  4.3436900859129122e-08  4.3912800035408485e-08  4.4157409170794113e-08  4.4270763427308985e-08  4.4286146446156636e-08  4.4187982780366623e-08  4.3966290913084713e-08  4.3744757392547411e-08  4.3996782032883642e-08  4.5805709169673448e-08  5.1058835982131597e-08  6.2404419566300373e-08  8.2522252693599166e-08  6.2742766617908444e-09  1.4483237774894186e-08  2.2483871349396697e-08  2.9382352300172784e-08  3.4759544841291985e-08  3.8595721663163506e-08  4.1121454342501942e-08  4.2666050675991401e-08  4.3549022891481930e-08  4.4025341484555129e-08  4.4270763427309104e-08  4.4385726642015197e-08  4.4403674143126506e-08  4.4308585145194649e-08  4.4089182405611094e-08  4.3867143711561417e-08  4.4113867863432406e-08  4.5912009637969520e-08  5.1151086463651376e-08  6.2485713527501652e-08  8.2605697853731844e-08  6.3469546110698092e-09  1.4517238967856275e-08  2.2497872870891893e-08  2.9388716604047757e-08  3.4764889112137344e-08  3.8602713052940694e-08  4.1130596464527668e-08  4.2676980945171606e-08  4.3561313187068417e-08  4.4038940579408979e-08  4.4286146446156715e-08  4.4403674143126625e-08  4.4424556909056452e-08  4.4331199272201207e-08  4.4109541780383695e-08  4.3878008905543998e-08  4.4105932643993402e-08  4.5877438967078091e-08  5.1089498543279436e-08  6.2411716046694139e-08  8.2555541645858907e-08  6.2650627649828262e-09  1.4386938303273809e-08  2.2352717497509236e-08  2.9246716922537103e-08  3.4632776996643210e-08  3.8480911142313884e-08  4.1016950987820060e-08  4.2568971040882141e-08  4.3457111824710303e-08  4.3937748080508329e-08  4.4187982780366729e-08  4.4308585145194795e-08  4.4331199272201332e-08  4.4235122193381848e-08  4.4002035761542806e-08  4.3746789138761828e-08  4.3938838586523281e-08  4.5669708528003584e-08  5.0854190784011871e-08  6.2191510540481600e-08  8.2431735911811722e-08  5.8567146330336083e-09  1.3965822423976939e-08  2.1961387387907177e-08  2.8899073909518779e-08  3.4326120084307126e-08  3.8205877657406790e-08  4.0763495974671907e-08  4.2329107910474801e-08  4.3225642520667769e-08  4.3711892506388238e-08  4.3966290913084832e-08  4.4089182405611246e-08  4.4109541780383874e-08  4.4002035761542819e-08  4.3743525688073082e-08  4.3447363531347611e-08  4.3589525147396266e-08  4.5280749978435004e-08  5.0471090499541874e-08  6.1911559827141206e-08  8.2413892528771942e-08  4.9519741117296563e-09  1.3182817401803337e-08  2.1327339077683207e-08  2.8399850687974478e-08  3.3930830483046353e-08  3.7882367753679794e-08  4.0485523707388753e-08  4.2078233279694752e-08  4.2990384833078284e-08  4.3485671514369817e-08  4.3744757392547577e-08  4.3867143711561576e-08  4.3878008905544150e-08  4.3746789138761894e-08  4.3447363531347631e-08  4.3098050240344344e-08  4.3194112274682937e-08  4.4885048154205488e-08  5.0181715024869315e-08  6.1916880833440132e-08  8.2992954179418598e-08  3.6063794708483606e-09  1.2253687704427999e-08  2.0774138649351676e-08  2.8139670336695074e-08  3.3877234865572852e-08  3.7963223886218844e-08  4.0648041026239172e-08  4.2287495321201321e-08  4.3225157952416378e-08  4.3733445837657111e-08  4.3996782032883735e-08  4.4113867863432605e-08  4.4105932643993607e-08  4.3938838586523321e-08  4.3589525147396299e-08  4.3194112274682917e-08  4.3287910162894410e-08  4.5086966594898557e-08  5.0695366508610961e-08  6.3062760790975529e-08  8.5216224197612355e-08  2.4459180090055264e-09  1.2005396424060583e-08  2.1244400681550539e-08  2.9126405311737032e-08  3.5210174627080088e-08  3.9513905507367989e-08  4.2327494504872629e-08  4.4038702413618555e-08  4.5013880315181578e-08  4.5539346904922692e-08  4.5805709169673640e-08  4.5912009637969718e-08  4.5877438967078316e-08  4.5669708528003637e-08  4.5280749978435044e-08  4.4885048154205521e-08  4.5086966594898563e-08  4.7203239822514608e-08  5.3465139395499122e-08  6.6970181354817117e-08  9.0903114383652714e-08  3.0484527659328095e-09  1.4180782612710044e-08  2.4546059708674717e-08  3.3201753319739809e-08  3.9792301513364047e-08  4.4409910338748437e-08  4.7406489560244580e-08  4.9217790292159958e-08  5.0243587221770954e-08  5.07