<?xml version="1.0"?>
<VTKFile type="UnstructuredGrid"  version="0.1"  >
<UnstructuredGrid>
<Piece  NumberOfPoints="9261" NumberOfCells="48000">
<Points>
<DataArray  type="Float64"  NumberOfComponents="3"  format="ascii">-2 -2 -2  -1.8 -2 -2  -1.6 -2 -2  -1.4 -2 -2  -1.2 -2 -2  -1 -2 -2  -0.8 -2 -2  -0.6000000000000001 -2 -2  -0.3999999999999999 -2 -2  -0.2 -2 -2  0 -2 -2  0.2000000000000002 -2 -2  0.3999999999999999 -2 -2  0.6000000000000001 -2 -2  0.7999999999999998 -2 -2  1 -2 -2  1.2 -2 -2  1.4 -2 -2  1.6 -2 -2  1.8 -2 -2  2 -2 -2  -2 -1.8 -2  -1.8 -1.8 -2  -1.6 -1.8 -2  -1.4 -1.8 -2  -1.2 -1.8 -2  -1 -1.8 -2  -0.8 -1.8 -2  -0.6000000000000001 -1.8 -2  -0.3999999999999999 -1.8 -2  -0.2 -1.8 -2  0 -1.8 -2  0.2000000000000002 -1.8 -2  0.3999999999999999 -1.8 -2  0.6000000000000001 -1.8 -2  0.7999999999999998 -1.8 -2  1 -1.8 -2  1.2 -1.8 -2  1.4 -1.8 -2  1.6 -1.8 -2  1.8 -1.8 -2  2 -1.8 -2  -2 -1.6 -2  -1.8 -1.6 -2  -1.6 -1.6 -2  -1.4 -1.6 -2  -1.2 -1.6 -2  -1 -1.6 -2  -0.8 -1.6 -2  -0.6000000000000001 -1.6 -2  -0.3999999999999999 -1.6 -2  -0.2 -1.6 -2  0 -1.6 -2  0.2000000000000002 -1.6 -2  0.3999999999999999 -1.6 -2  0.6000000000000001 -1.6 -2  0.7999999999999998 -1.6 -2  1 -1.6 -2  1.2 -1.6 -2  1.4 -1.6 -2  1.6 -1.6 -2  1.8 -1.6 -2  2 -1.6 -2  -2 -1.4 -2  -1.8 -1.4 -2  -1.6 -1.4 -2  -1.4 -1.4 -2  -1.2 -1.4 -2  -1 -1.4 -2  -0.8 -1.4 -2  -0.6000000000000001 -1.4 -2  -0.3999999999999999 -1.4 -2  -0.2 -1.4 -2  0 -1.4 -2  0.2000000000000002 -1.4 -2  0.3999999999999999 -1.4 -2  0.6000000000000001 -1.4 -2  0.7999999999999998 -1.4 -2  1 -1.4 -2  1.2 -1.4 -2  1.4 -1.4 -2  1.6 -1.4 -2  1.8 -1.4 -2  2 -1.4 -2  -2 -1.2 -2  -1.8 -1.2 -2  -1.6 -1.2 -2  -1.4 -1.2 -2  -1.2 -1.2 -2  -1 -1.2 -2  -0.8 -1.2 -2  -0.6000000000000001 -1.2 -2  -0.3999999999999999 -1.2 -2  -0.2 -1.2 -2  0 -1.2 -2  0.2000000000000002 -1.2 -2  0.3999999999999999 -1.2 -2  0.6000000000000001 -1.2 -2  0.7999999999999998 -1.2 -2  1 -1.2 -2  1.2 -1.2 -2  1.4 -1.2 -2  1.6 -1.2 -2  1.8 -1.2 -2  2 -1.2 -2  -2 -1 -2  -1.8 -1 -2  -1.6 -1 -2  -1.4 -1 -2  -1.2 -1 -2  -1 -1 -2  -0.8 -1 -2  -0.6000000000000001 -1 -2  -0.3999999999999999 -1 -2  -0.2 -1 -2  0 -1 -2  0.2000000000000002 -1 -2  0.3999999999999999 -1 -2  0.6000000000000001 -1 -2  0.7999999999999998 -1 -2  1 -1 -2  1.2 -1 -2  1.4 -1 -2  1.6 -1 -2  1.8 -1 -2  2 -1 -2  -2 -0.8 -2  -1.8 -0.8 -2  -1.6 -0.8 -2  -1.4 -0.8 -2  -1.2 -0.8 -2  -1 -0.8 -2  -0.8 -0.8 -2  -0.6000000000000001 -0.8 -2  -0.3999999999999999 -0.8 -2  -0.2 -0.8 -2  0 -0.8 -2  0.2000000000000002 -0.8 -2  0.3999999999999999 -0.8 -2  0.6000000000000001 -0.8 -2  0.7999999999999998 -0.8 -2  1 -0.8 -2  1.2 -0.8 -2  1.4 -0.8 -2  1.6 -0.8 -2  1.8 -0.8 -2  2 -0.8 -2  -2 -0.6000000000000001 -2  -1.8 -0.6000000000000001 -2  -1.6 -0.6000000000000001 -2  -1.4 -0.6000000000000001 -2  -1.2 -0.6000000000000001 -2  -1 -0.6000000000000001 -2  -0.8 -0.6000000000000001 -2  -0.6000000000000001 -0.6000000000000001 -2  -0.3999999999999999 -0.6000000000000001 -2  -0.2 -0.6000000000000001 -2  0 -0.6000000000000001 -2  0.2000000000000002 -0.6000000000000001 -2  0.3999999999999999 -0.6000000000000001 -2  0.6000000000000001 -0.6000000000000001 -2  0.7999999999999998 -0.6000000000000001 -2  1 -0.6000000000000001 -2  1.2 -0.6000000000000001 -2  1.4 -0.6000000000000001 -2  1.6 -0.6000000000000001 -2  1.8 -0.6000000000000001 -2  2 -0.6000000000000001 -2  -2 -0.3999999999999999 -2  -1.8 -0.3999999999999999 -2  -1.6 -0.3999999999999999 -2  -1.4 -0.3999999999999999 -2  -1.2 -0.3999999999999999 -2  -1 -0.3999999999999999 -2  -0.8 -0.3999999999999999 -2  -0.6000000000000001 -0.3999999999999999 -2  -0.3999999999999999 -0.3999999999999999 -2  -0.2 -0.3999999999999999 -2  0 -0.3999999999999999 -2  0.2000000000000002 -0.3999999999999999 -2  0.3999999999999999 -0.3999999999999999 -2  0.6000000000000001 -0.3999999999999999 -2  0.7999999999999998 -0.3999999999999999 -2  1 -0.3999999999999999 -2  1.2 -0.3999999999999999 -2  1.4 -0.3999999999999999 -2  1.6 -0.3999999999999999 -2  1.8 -0.3999999999999999 -2  2 -0.3999999999999999 -2  -2 -0.2 -2  -1.8 -0.2 -2  -1.6 -0.2 -2  -1.4 -0.2 -2  -1.2 -0.2 -2  -1 -0.2 -2  -0.8 -0.2 -2  -0.6000000000000001 -0.2 -2  -0.3999999999999999 -0.2 -2  -0.2 -0.2 -2  0 -0.2 -2  0.2000000000000002 -0.2 -2  0.3999999999999999 -0.2 -2  0.6000000000000001 -0.2 -2  0.7999999999999998 -0.2 -2  1 -0.2 -2  1.2 -0.2 -2  1.4 -0.2 -2  1.6 -0.2 -2  1.8 -0.2 -2  2 -0.2 -2  -2 0 -2  -1.8 0 -2  -1.6 0 -2  -1.4 0 -2  -1.2 0 -2  -1 0 -2  -0.8 0 -2  -0.6000000000000001 0 -2  -0.3999999999999999 0 -2  -0.2 0 -2  0 0 -2  0.2000000000000002 0 -2  0.3999999999999999 0 -2  0.6000000000000001 0 -2  0.7999999999999998 0 -2  1 0 -2  1.2 0 -2  1.4 0 -2  1.6 0 -2  1.8 0 -2  2 0 -2  -2 0.2000000000000002 -2  -1.8 0.2000000000000002 -2  -1.6 0.2000000000000002 -2  -1.4 0.2000000000000002 -2  -1.2 0.2000000000000002 -2  -1 0.2000000000000002 -2  -0.8 0.2000000000000002 -2  -0.6000000000000001 0.2000000000000002 -2  -0.3999999999999999 0.2000000000000002 -2  -0.2 0.2000000000000002 -2  0 0.2000000000000002 -2  0.2000000000000002 0.2000000000000002 -2  0.3999999999999999 0.2000000000000002 -2  0.6000000000000001 0.2000000000000002 -2  0.7999999999999998 0.2000000000000002 -2  1 0.2000000000000002 -2  1.2 0.2000000000000002 -2  1.4 0.2000000000000002 -2  1.6 0.2000000000000002 -2  1.8 0.2000000000000002 -2  2 0.2000000000000002 -2  -2 0.3999999999999999 -2  -1.8 0.3999999999999999 -2  -1.6 0.3999999999999999 -2  -1.4 0.3999999999999999 -2  -1.2 0.3999999999999999 -2  -1 0.3999999999999999 -2  -0.8 0.3999999999999999 -2  -0.6000000000000001 0.3999999999999999 -2  -0.3999999999999999 0.3999999999999999 -2  -0.2 0.3999999999999999 -2  0 0.3999999999999999 -2  0.2000000000000002 0.3999999999999999 -2  0.3999999999999999 0.3999999999999999 -2  0.6000000000000001 0.3999999999999999 -2  0.7999999999999998 0.3999999999999999 -2  1 0.3999999999999999 -2  1.2 0.3999999999999999 -2  1.4 0.3999999999999999 -2  1.6 0.3999999999999999 -2  1.8 0.3999999999999999 -2  2 0.3999999999999999 -2  -2 0.6000000000000001 -2  -1.8 0.6000000000000001 -2  -1.6 0.6000000000000001 -2  -1.4 0.6000000000000001 -2  -1.2 0.6000000000000001 -2  -1 0.6000000000000001 -2  -0.8 0.6000000000000001 -2  -0.6000000000000001 0.6000000000000001 -2  -0.3999999999999999 0.6000000000000001 -2  -0.2 0.6000000000000001 -2  0 0.6000000000000001 -2  0.2000000000000002 0.6000000000000001 -2  0.3999999999999999 0.6000000000000001 -2  0.6000000000000001 0.6000000000000001 -2  0.7999999999999998 0.6000000000000001 -2  1 0.6000000000000001 -2  1.2 0.6000000000000001 -2  1.4 0.6000000000000001 -2  1.6 0.6000000000000001 -2  1.8 0.6000000000000001 -2  2 0.6000000000000001 -2  -2 0.7999999999999998 -2  -1.8 0.7999999999999998 -2  -1.6 0.7999999999999998 -2  -1.4 0.7999999999999998 -2  -1.2 0.7999999999999998 -2  -1 0.7999999999999998 -2  -0.8 0.7999999999999998 -2  -0.6000000000000001 0.7999999999999998 -2  -0.3999999999999999 0.7999999999999998 -2  -0.2 0.7999999999999998 -2  0 0.7999999999999998 -2  0.2000000000000002 0.7999999999999998 -2  0.3999999999999999 0.7999999999999998 -2  0.6000000000000001 0.7999999999999998 -2  0.7999999999999998 0.7999999999999998 -2  1 0.7999999999999998 -2  1.2 0.7999999999999998 -2  1.4 0.7999999999999998 -2  1.6 0.7999999999999998 -2  1.8 0.7999999999999998 -2  2 0.7999999999999998 -2  -2 1 -2  -1.8 1 -2  -1.6 1 -2  -1.4 1 -2  -1.2 1 -2  -1 1 -2  -0.8 1 -2  -0.6000000000000001 1 -2  -0.3999999999999999 1 -2  -0.2 1 -2  0 1 -2  0.2000000000000002 1 -2  0.3999999999999999 1 -2  0.6000000000000001 1 -2  0.7999999999999998 1 -2  1 1 -2  1.2 1 -2  1.4 1 -2  1.6 1 -2  1.8 1 -2  2 1 -2  -2 1.2 -2  -1.8 1.2 -2  -1.6 1.2 -2  -1.4 1.2 -2  -1.2 1.2 -2  -1 1.2 -2  -0.8 1.2 -2  -0.6000000000000001 1.2 -2  -0.3999999999999999 1.2 -2  -0.2 1.2 -2  0 1.2 -2  0.2000000000000002 1.2 -2  0.3999999999999999 1.2 -2  0.6000000000000001 1.2 -2  0.7999999999999998 1.2 -2  1 1.2 -2  1.2 1.2 -2  1.4 1.2 -2  1.6 1.2 -2  1.8 1.2 -2  2 1.2 -2  -2 1.4 -2  -1.8 1.4 -2  -1.6 1.4 -2  -1.4 1.4 -2  -1.2 1.4 -2  -1 1.4 -2  -0.8 1.4 -2  -0.6000000000000001 1.4 -2  -0.3999999999999999 1.4 -2  -0.2 1.4 -2  0 1.4 -2  0.2000000000000002 1.4 -2  0.3999999999999999 1.4 -2  0.6000000000000001 1.4 -2  0.7999999999999998 1.4 -2  1 1.4 -2  1.2 1.4 -2  1.4 1.4 -2  1.6 1.4 -2  1.8 1.4 -2  2 1.4 -2  -2 1.6 -2  -1.8 1.6 -2  -1.6 1.6 -2  -1.4 1.6 -2  -1.2 1.6 -2  -1 1.6 -2  -0.8 1.6 -2  -0.6000000000000001 1.6 -2  -0.3999999999999999 1.6 -2  -0.2 1.6 -2  0 1.6 -2  0.2000000000000002 1.6 -2  0.3999999999999999 1.6 -2  0.6000000000000001 1.6 -2  0.7999999999999998 1.6 -2  1 1.6 -2  1.2 1.6 -2  1.4 1.6 -2  1.6 1.6 -2  1.8 1.6 -2  2 1.6 -2  -2 1.8 -2  -1.8 1.8 -2  -1.6 1.8 -2  -1.4 1.8 -2  -1.2 1.8 -2  -1 1.8 -2  -0.8 1.8 -2  -0.6000000000000001 1.8 -2  -0.3999999999999999 1.8 -2  -0.2 1.8 -2  0 1.8 -2  0.2000000000000002 1.8 -2  0.3999999999999999 1.8 -2  0.6000000000000001 1.8 -2  0.7999999999999998 1.8 -2  1 1.8 -2  1.2 1.8 -2  1.4 1.8 -2  1.6 1.8 -2  1.8 1.8 -2  2 1.8 -2  -2 2 -2  -1.8 2 -2  -1.6 2 -2  -1.4 2 -2  -1.2 2 -2  -1 2 -2  -0.8 2 -2  -0.6000000000000001 2 -2  -0.3999999999999999 2 -2  -0.2 2 -2  0 2 -2  0.2000000000000002 2 -2  0.3999999999999999 2 -2  0.6000000000000001 2 -2  0.7999999999999998 2 -2  1 2 -2  1.2 2 -2  1.4 2 -2  1.6 2 -2  1.8 2 -2  2 2 -2  -2 -2 -1.8  -1.8 -2 -1.8  -1.6 -2 -1.8  -1.4 -2 -1.8  -1.2 -2 -1.8  -1 -2 -1.8  -0.8 -2 -1.8  -0.6000000000000001 -2 -1.8  -0.3999999999999999 -2 -1.8  -0.2 -2 -1.8  0 -2 -1.8  0.2000000000000002 -2 -1.8  0.3999999999999999 -2 -1.8  0.6000000000000001 -2 -1.8  0.7999999999999998 -2 -1.8  1 -2 -1.8  1.2 -2 -1.8  1.4 -2 -1.8  1.6 -2 -1.8  1.8 -2 -1.8  2 -2 -1.8  -2 -1.8 -1.8  -1.8 -1.8 -1.8  -1.6 -1.8 -1.8  -1.4 -1.8 -1.8  -1.2 -1.8 -1.8  -1 -1.8 -1.8  -0.8 -1.8 -1.8  -0.6000000000000001 -1.8 -1.8  -0.3999999999999999 -1.8 -1.8  -0.2 -1.8 -1.8  0 -1.8 -1.8  0.2000000000000002 -1.8 -1.8  0.3999999999999999 -1.8 -1.8  0.6000000000000001 -1.8 -1.8  0.7999999999999998 -1.8 -1.8  1 -1.8 -1.8  1.2 -1.8 -1.
[...]
<PointData  Scalars="uA"> 
<DataArray  type="Float64"  Name="uA"  format="ascii">-1.3145003725079346e-14  -3.2411040018364625e-15  -1.1538201509728425e-14  -2.2829635704911888e-14  -1.7891449583715807e-14  2.5288689573313998e-14  4.4181073094423852e-14  -3.1232140953680892e-14  -1.2290262047346164e-13  -1.1617809436489446e-13  -4.6046439754448875e-14  -4.0108558750966416e-15  1.0235487694515295e-15  -6.6848375239395499e-16  -2.9589623918868789e-16  -3.6024337376394260e-17  -2.5319560181570712e-17  -1.4261861912830673e-18  1.5332620980421538e-18  1.7112439257955488e-19  3.4046796927093528e-19  -3.2411040018371251e-15  4.1805475943161090e-15  -3.3026442545412289e-15  -9.9271482487178288e-15  -7.0648517532458811e-15  1.9289981117603664e-14  3.1723468902729477e-14  -1.3140500350208525e-14  -6.8954145643331420e-14  -6.6597091114929222e-14  -2.6706771245865980e-14  -2.9556737080106729e-15  1.0087687818980595e-17  -5.7368896814188226e-16  -1.8785837774951217e-16  -2.5066951371757449e-17  -1.3799994211915517e-17  1.1856738219014441e-18  9.4365464279179806e-19  -1.3880742497419113e-20  1.5293317643074716e-19  -1.1538201509729614e-14  -3.3026442545414087e-15  -1.0745193430538241e-14  -1.6824086658006792e-14  -1.2583235041021245e-14  1.3580843966246302e-14  2.2075399954392878e-14  -2.6999419228109514e-14  -8.1978883797445719e-14  -7.4077264911355162e-14  -2.8731342606205520e-14  -2.6707247261635344e-15  2.7610608160791012e-16  -6.6335986032603801e-16  -2.9847568855157753e-16  -6.7636362900318205e-17  -2.9292053547840394e-17  -3.5973514179746556e-18  3.9326863498557965e-19  -2.3031997387585461e-20  1.8539267055922244e-19  -2.2829635704913254e-14  -9.9271482487178919e-15  -1.6824086658006530e-14  -2.2682250295901653e-14  -1.8785941799421487e-14  6.0517358136504869e-15  1.3109286137496041e-14  -3.5983810699257020e-14  -8.9030019040314102e-14  -7.8207208223362772e-14  -3.0326857790798196e-14  -2.8305336415333366e-15  5.6946387952453409e-16  -4.1057834443269104e-16  -1.8871132867855740e-16  -4.5576560083386760e-17  -3.3085748717250896e-17  -8.1812077098257312e-18  -1.5532474357604126e-18  -4.7967516305510117e-19  1.4853082085053603e-19  -1.7891449583716722e-14  -7.0648517532454725e-15  -1.2583235041020675e-14  -1.8785941799421304e-14  -1.6580737651164745e-14  6.5859035789507149e-15  1.4983503963613762e-14  -2.8814689351775103e-14  -7.5811030009097698e-14  -6.2479965078811170e-14  -1.6743487448390220e-14  6.2504583448520646e-15  5.5104176807829229e-15  1.8848151005310807e-15  7.5605720433676619e-16  3.0021113403374296e-16  7.4702185106929590e-17  1.7825386237611134e-17  2.3791775386873267e-18  -4.0823157373170703e-19  1.0756287496889545e-20  2.5288689573314023e-14  1.9289981117604465e-14  1.3580843966247021e-14  6.0517358136505059e-15  6.5859035789504909e-15  3.1679931955841627e-14  4.7189909363801984e-14  1.0450847820691703e-14  -3.7415560833661664e-14  -3.4429016995374453e-14  -2.2448458011474275e-15  1.0873243464998942e-14  5.7926753249135875e-15  1.3057069490040852e-15  4.2337248478414395e-16  2.2629754039285929e-16  9.0764836832905407e-17  3.8357980509636034e-17  1.1129684705974219e-17  1.6725177658107356e-18  3.1759566112722788e-19  4.4181073094424874e-14  3.1723468902730367e-14  2.2075399954393074e-14  1.3109286137495395e-14  1.4983503963613223e-14  4.7189909363801971e-14  6.9876217990725659e-14  2.8690564240124149e-14  -3.8227889092103411e-14  -5.6900641482147021e-14  -3.4763796090659574e-14  -1.7656437426130684e-14  -1.2420272463669434e-14  -7.8458583003211346e-15  -3.3951213909817887e-15  -1.1387088737738054e-15  -3.2487753468478771e-16  -6.4384626282515050e-17  -7.7199358220442990e-18  -5.4545969045270525e-19  1.2501720351060212e-19  -3.1232140953679870e-14  -1.3140500350208406e-14  -2.6999419228110114e-14  -3.5983810699257726e-14  -2.8814689351775160e-14  1.0450847820692220e-14  2.8690564240124547e-14  -3.5133617095035332e-14  -1.2712470875639854e-13  -1.4918141581025361e-13  -1.0409506514243034e-13  -5.5069295979199984e-14  -2.6573275137313134e-14  -1.1342559666072500e-14  -3.8391831398107472e-15  -1.1332808018350047e-15  -3.3008618461296167e-16  -7.8727443544910848e-17  -1.4715546761664951e-17  -2.2120342698487115e-18  -1.3474806237834491e-19  -1.2290262047346141e-13  -6.8954145643331874e-14  -8.1978883797446413e-14  -8.9030019040314001e-14  -7.5811030009096802e-14  -3.7415560833660724e-14  -3.8227889092103278e-14  -1.2712470875639972e-13  -2.1827258045342352e-13  -2.0158755077297042e-13  -1.0611770724060481e-13  -2.7892939583319255e-14  2.3546550712774092e-15  6.7358531091723621e-15  4.3227150770863378e-15  1.7761358816925946e-15  5.3148905126395461e-16  1.3646920618170439e-16  3.0847957699109851e-17  6.4209940241342216e-18  1.8510373510111937e-18  -1.1617809436489474e-13  -6.6597091114929551e-14  -7.4077264911355251e-14  -7.8207208223362141e-14  -6.2479965078810286e-14  -3.4429016995374061e-14  -5.6900641482147311e-14  -1.4918141581025431e-13  -2.0158755077297113e-13  -1.2805126688218343e-13  -6.3545834264445055e-15  5.2628684717963025e-14  4.5144955953670144e-14  2.1712464087086436e-14  7.3964877052959357e-15  1.8489841409437356e-15  3.1099047049485798e-16  2.5828491376531594e-17  -5.5795884248039121e-18  -3.0937811340572982e-18  -8.2562708883670906e-19  -4.6046439754449133e-14  -2.6706771245866002e-14  -2.8731342606205274e-14  -3.0326857790797659e-14  -1.6743487448389936e-14  -2.2448458011476255e-15  -3.4763796090660003e-14  -1.0409506514243076e-13  -1.0611770724060487e-13  -6.3545834264440385e-15  8.4920642178903938e-14  8.5756823708044683e-14  3.8875022465934150e-14  6.6559095094794668e-15  -2.0271834636862398e-15  -1.8068905084407067e-15  -7.2416268568197067e-16  -2.0285742364264321e-16  -4.3757722531487474e-17  -7.3181449218438608e-18  -8.0170435113976439e-19  -4.0108558750964728e-15  -2.9556737080105593e-15  -2.6707247261633798e-15  -2.8305336415331977e-15  6.2504583448518998e-15  1.0873243464998660e-14  -1.7656437426130931e-14  -5.5069295979200161e-14  -2.7892939583319150e-14  5.2628684717963245e-14  8.5756823708044835e-14  4.4568238078064187e-14  -2.1193959703619700e-15  -1.3615812593202565e-14  -6.9791555450930316e-15  -1.6899714772014852e-15  -1.5201327983390934e-16  5.8440981501678210e-17  3.5328582910234642e-17  1.0399387231298477e-17  2.9709370737080770e-18  1.0235487694517482e-15  1.0087687819019644e-17  2.7610608160788310e-16  5.6946387952448735e-16  5.5104176807828046e-15  5.7926753249134976e-15  -1.2420272463669453e-14  -2.6573275137313093e-14  2.3546550712775196e-15  4.5144955953670263e-14  3.8875022465934182e-14  -2.1193959703620395e-15  -2.0668359095574273e-14  -1.1058870506253691e-14  -6.6494641844995512e-16  1.4106558257886731e-15  6.3197870631805572e-16  1.5279708242371761e-16  2.2652057899623772e-17  -9.0375405935777283e-19  -1.4283261549159672e-18  -6.6848375239385766e-16  -5.7368896814190425e-16  -6.6335986032609431e-16  -4.1057834443270918e-16  1.8848151005310819e-15  1.3057069490040907e-15  -7.8458583003211204e-15  -1.1342559666072470e-14  6.7358531091723842e-15  2.1712464087086433e-14  6.6559095094794376e-15  -1.3615812593202592e-14  -1.1058870506253706e-14  6.0150514500207221e-16  3.6204702439847488e-15  1.2942799596041969e-15  -1.1532671994474758e-17  -1.0564534822338805e-16  -3.8527366451398685e-17  -9.9227070229887010e-18  -1.1503675159662469e-18  -2.9589623918866979e-16  -1.8785837774953411e-16  -2.9847568855160154e-16  -1.8871132867854668e-16  7.5605720433678039e-16  4.2337248478413932e-16  -3.3951213909817961e-15  -3.8391831398107503e-15  4.3227150770863338e-15  7.3964877052959231e-15  -2.0271834636862485e-15  -6.9791555450930521e-15  -6.6494641844995788e-16  3.6204702439847417e-15  1.5190021074762711e-15  -4.8842478221464908e-16  -4.1749759237968147e-16  -6.4367654496295095e-17  5.9852683138777912e-18  5.2284790211830244e-18  2.8848871241961830e-18  -3.6024337376394679e-17  -2.5066951371765963e-17  -6.7636362900323184e-17  -4.5576560083377189e-17  3.0021113403374552e-16  2.2629754039285115e-16  -1.1387088737738074e-15  -1.1332808018350033e-15  1.7761358816925907e-15  1.8489841409437344e-15  -1.8068905084407040e-15  -1.6899714772014833e-15  1.4106558257886727e-15  1.2942799596041942e-15  -4.8842478221464829e-16  -5.9877792545747259e-16  -2.3096291295443612e-17  8.7598383151489509e-17  2.0893770609367434e-17  1.9515120732846245e-18  -1.6178780432761225e-19  -2.5319560181570916e-17  -1.3799994211917631e-17  -2.9292053547840807e-17  -3.3085748717247746e-17  7.4702185106928727e-17  9.0764836832902671e-17  -3.2487753468478599e-16  -3.3008618461296034e-16  5.3148905126395323e-16  3.1099047049485818e-16  -7.2416268568197127e-16  -1.5201327983390966e-16  6.3197870631805533e-16  -1.1532671994474832e-17  -4.1749759237968078e-16  -2.3096291295443390e-17  1.4564210923563660e-16  3.0117659492861186e-17  -1.4608542620145435e-17  -4.2741686937426867e-18  -9.2514834594721454e-19  -1.4261861912824323e-18  1.1856738219010347e-18  -3.5973514179746225e-18  -8.1812077098250610e-18  1.7825386237610770e-17  3.8357980509635640e-17  -6.4384626282514360e-17  -7.8727443544910947e-17  1.3646920618170375e-16  2.5828491376531711e-17  -2.0285742364264355e-16  5.8440981501678062e-17  1.5279708242371796e-16  -1.0564534822338742e-16  -6.4367654496294934e-17  8.7598383151489386e-17  3.0117659492861156e-17  -2.8292139872690024e-17  -9.6574375369214885e-18  2.1578236811493058e-18  7.3332952108675575e-19  1.5332620980425871e-18  9.4365464279166999e-19  3.9326863498559948e-19  -1.5532474357603198e-18  2.3791775386872139e-18  1.1129684705974145e-17  -7.7199358220442482e-18  -1.4715546761665099e-17  3.0847957699109808e-17  -5.5795884248037133e-18  -4.3757722531487492e-17  3.5328582910234691e-17  2.2652057899623852e-17  -3.8527366451398716e-17  5.9852683138776680e-18  2.0893770609367410e-17  -1.4608542620145413e-17  -9.6574375369214808e-18  4.9596708915935266e-18  2.3388890457703067e-18  -3.6866486857993113e-19  1.7112439257963782e-19  -1.3880742497504787e-20  -2.3031997387569842e-20  -4.7967516305508932e-19  -4.0823157373173659e-19  1.6725177658107343e-18  -5.4545969045266154e-19  -2.2120342698486861e-18  6.4209940241342524e-18  -3.0937811340572824e-18  -7.3181449218439024e-18  1.0399387231298469e-17  -9.0375405935779401e-19  -9.9227070229887087e-18  5.2284790211830329e-18  1.9515120732846526e-18  -4.2741686937426836e-18  2.1578236811493000e-18  2.3388890457703032e-18  -9.1466679291817851e-19  -6.3507457443656616e-19  3.4046796927091915e-19  1.5293317643071213e-19  1.8539267055924689e-19  1.4853082085054031e-19  1.0756287496889115e-20  3.1759566112723867e-19  1.2501720351062003e-19  -1.3474806237834816e-19  1.8510373510111814e-18  -8.2562708883672129e-19  -8.0170435113977306e-19  2.9709370737080897e-18  -1.4283261549159630e-18  -1.1503675159662363e-18  2.8848871241961911e-18  -1.6178780432761389e-19  -9.2514834594722148e-19  7.3332952108675498e-19  -3.6866486857993108e-19  -6.3507457443656567e-19  3.5626390062440537e-19  -5.9542064774932814e-14  -5.0950649934829080e-14  -3.8291102034539622e-14  -3.1231412862706826e-14  2.1131940440614496e-15  -1.6056132966009226e-14  -1.4657822903939175e-13  -1.9640724512867112e-13  2.1488644746917975e-14  2.6986454304434513e-13  2.5695565254426162e-13  9.9563027873809182e-14  1.3686661807438402e-14  2.5207559911924981e-15  2.2653571759597379e-15  4.5706905092777450e-16  5.2964760855325150e-17  2.4465880165243232e-17  -6.2138507263111475e-18  -1.0223942909485456e-18  -4.1330854043267554e-19  -5.0950649934829673e-14  -4.2058582180113671e-14  -2.9998003687915208e-14  -2.7406822118231132e-14  -1.0210449691153429e-14  -1.8027932161792393e-14  -8.4954351250778086e-14  -1.1531133504944664e-13  -9.3415637319157917e-15  1.1826374177881349e-13  1.1877554867464220e-13  4.6591782987912954e-14  7.0128741386096989e-15  1.7101187055161617e-15  1.1264299796669272e-15  1.6372315475948412e-16  1.3436274467664213e-17  5.4339931463886810e-18  -6.3751318676164743e-18  -8.2359290237097703e-19  -2.4905204641134712e-19  -3.8291102034538436e-14  -2.9998003687914431e-14  -1.8520473069711395e-14  -1.5191622320641137e-14  1.0591585847487919e-15  -9.7106375969138901e-15  -7.5959913943538652e-14  -9.8555895840301527e-14  1.4161704446479062e-14  1.3904650971073537e-13  1.3006045579072282e-13  4.9295707381613456e-14  6.1788125278042446e-15  1.0345507415005251e-15  1.1019819834011855e-15  2.2436808963521838e-16  2.5628381783907182e-17  1.0318012167248105e-17  -5.1210219854611325e-18  -6.8047062084597292e-19  -4.5414549721239315e-20  -3.1231412862703885e-14  -2.7406822118229775e-14  -1.5191622320640531e-14  -1.1962594216197719e-14  3.5390827306904768e-15  -7.7984898305885323e-15  -7.3179625838152590e-14  -9.3140431811579518e-14  2.2504060032843252e-14  1.4870201492427658e-13  1.3874260845019985e-13  5.5477738658971705e-14  9.7217405858484262e-15  2.7090293244744864e-15  1.7681574316702228e-15  4.5545279068748461e-16  9.8579623572563770e-17  2.8435467494007747e-17  -2.8270843749081685e-18  -7.7552697617740893e-19  -2.2289050343420542e-19  2.1131940440652235e-15  -1.0210449691152300e-14  1.0591585847488676e-15  3.5390827306900539e-15  1.8637307517432102e-14  9.0628569266521466e-15  -5.2442823813855400e-14  -6.9962848962736228e-14  4.2839485996277550e-14  1.6136828921823979e-13  1.4328015874530291e-13  5.5111671609132674e-14  7.9988154095329053e-15  1.4315723365760233e-15  1.2001818848654846e-15  3.0319186955143753e-16  9.2739852444898035e-17  4.5616309671996548e-17  6.6698779559537705e-18  1.8944784132163698e-18  1.2662773004467900e-19  -1.6056132966005515e-14  -1.8027932161791834e-14  -9.7106375969147610e-15  -7.7984898305896588e-15  9.0628569266518941e-15  3.7940418404689700e-15  -5.5859269686173468e-14  -8.0307780783911046e-14  1.8186378726776433e-14  1.2494771025255793e-13  1.0582324604455938e-13  2.6211324506830823e-14  -9.6518532172333586e-15  -7.5253463890538203e-15  -2.7386506542015244e-15  -1.2247427583467149e-15  -4.1718462960377687e-16  -9.0323573447059889e-17  -1.8059499585288471e-17  3.0400072877627118e-19  5.6391574292628008e-19  -1.4657822903938951e-13  -8.4954351250778869e-14  -7.5959913943540482e-14  -7.3179625838153650e-14  -5.2442823813855053e-14  -5.5859269686172900e-14  -1.2431565143621714e-13  -1.6702370253820224e-13  -7.9540547847002722e-14  3.8929060671043100e-14  5.0105720451226218e-14  1.2783931120036137e-15  -1.6050810283962418e-14  -7.4095039849862615e-15  -1.9269706286100154e-15  -9.6704043834960887e-16  -4.6894265946052849e-16  -1.7565580571370267e-16  -5.9966818246697729e-17  -1.1328508332510044e-17  -1.1373789100959120e-18  -1.9640724512867145e-13  -1.1531133504944841e-13  -9.8555895840303092e-14  -9.3140431811579316e-14  -6.9962848962734612e-14  -8.0307780783910175e-14  -1.6702370253820214e-13  -2.1945763684631061e-13  -1.0857629016956089e-13  6.0944488967594373e-14  1.1575638177715763e-13  7.7075539659181550e-14  4.1914758246222374e-14  2.5824113790461436e-14  1.3351660798109300e-14  4.9233570839556997e-15  1.4603531171594014e-15  3.4502789252988811e-16  4.7663490775075278e-17  3.7598239609479028e-18  1.9644948434150614e-19  2.1488644746916410e-14  -9.3415637319168141e-15  1.4161704446479340e-14  2.2504060032844577e-14  4.2839485996278623e-14  1.8186378726775777e-14  -7.9540547847004097e-14  -1.0857629016956148e-13  6.1350279164410394e-14  2.7626363911804975e-13  3.1569379772001337e-13  2.1072637048588792e-13  1.0568907071974871e-13  4.7057958845061658e-14  1.8058437426271212e-14  5.5954896952505625e-15  1.5771429256399345e-15  4.1093136051517341e-16  7.9880318449563392e-17  1.2964394615600189e-17  1.5299298706259582e-18  2.6986454304434448e-13  1.1826374177881374e-13  1.3904650971073648e-13  1.4870201492427759e-13  1.6136828921823876e-13  1.2494771025255586e-13  3.8929060671041509e-14  6.0944488967594361e-14  2.7626363911805096e-13  4.6162681291614122e-13  3.9689578503568713e-13  1.8883011189088006e-13  4.1170635554580679e-14  -7.3492238502619342e-15  -1.1337939337493539e-14  -6.2477980388344097e-15  -2.2696849817978851e-15  -6.3574864567694834e-16  -1.6115881407112908e-16  -3.5530705168795024e-17  -7.5827595727682215e-18  2.5695565254426202e-13  1.1877554867464267e-13  1.3006045579072333e-13  1.3874260845019975e-13  1.4328015874530175e-13  1.0582324604455799e-13  5.0105720451225902e-14  1.1575638177715832e-13  3.1569379772001459e-13  3.9689578503568779e-13  2.1938787973131207e-13  -1.3278706009610283e-14  -9.9058589686411607e-14  -7.0578847764015725e-14  -2.9197580493063453e-14  -8.5448611079535697e-15  -1.7444683063635313e-15  -1.9294471557806024e-16  1.1788578272416736e-17  1.4124364551803123e-17  4.4199231220932582e-18  9.9563027873810040e-14  4.6591782987913068e-14  4.9295707381613349e-14  5.5477738658971162e-14  5.5111671609131803e-14  2.6211324506830555e-14  1.2783931120040417e-15  7.7075539659182043e-14  2.1072637048588835e-13  1.8883011189087986e-13  -1.3278706009610863e-14  -1.5780462038133700e-13  -1.3017975832024657e-13  -4.5034476547429003e-14  -1.7036555305657361e-15  5.0076938659318080e-15  2.6871265218205574e-15  8.8990357576228524e-16  2.1074572223981728e-16  3.7592217736274989e-17  4.3453618013036150e-18  1.3686661807438344e-14  7.0128741386094433e-15  6.1788125278039677e-15  9.7217405858482179e-15  7.9988154095327823e-15  -9.6518532172330272e-15  -1.6050810283962061e-14  4.1914758246222683e-14  1.0568907071974879e-13  4.1170635554580515e-14  -9.9058589686411821e-14  -1.3017975832024694e-13  -4.6663579786911472e-14  1.7791751286212061e-14  2.1420407096843257e-14  7.5904094565263767e-15  1.1109382391632168e-15  -1.1660298344774308e-16  -1.3777880699411591e-16  -4.8900656436301948e-17  -1.1411329752593085e-17  2.5207559911921036e-15  1.7101187055159790e-15  1.0345507415004731e-15  2.7090293244745905e-15  1.4315723365760803e-15  -7.5253463890537493e-15  -7.4095039849862110e-15  2.5824113790461411e-14  4.7057958845061583e-14  -7.3492238502621330e-15  -7.0578847764015788e-14  -4.5034476547429022e-14  1.7791751286212121e-14  3.0724571956151000e-14  9.4917400972572267e-15  -2.3426545233166965e-15  -2.2050148724846699e-15  -6.3207203384696221e-16  -1.1102956785937412e-16  -2.1128666633107757e-18  5.8721083800781350e-18  2.2653571759594689e-15  1.1264299796668684e-15  1.1019819834012174e-15  1.7681574316703053e-15  1.2001818848654765e-15  -2.7386506542015406e-15  -1.9269706286100102e-15  1.3351660798109296e-14  1.8058437426271199e-14  -1.1337939337493540e-14  -2.9197580493063421e-14  -1.7036555305657140e-15  2.1420407096843336e-14  9.4917400972572173e-15  -5.1904073707282712e-15  -4.6200924964368841e-15  -6.1789498497191671e-16  3.1801120670585688e-16  1.4281932865848725e-16  3.9796792150411260e-17  6.2017201203632739e-18  4.5706905092768576e-16  1.6372315475948087e-16  2.2436808963524717e-16  4.5545279068750818e-16  3.0319186955140933e-16  -1.2247427583467252e-15  -9.6704043834958875e-16  4.9233570839557045e-15  5.5954896952505609e-15  -6.2477980388343884e-15  -8.5448611079535571e-15  5.0076938659318041e-15  7.5904094565263704e-15  -2.3426545233166910e-15  -4.6200924964368771e-15  -3.1449319960821610e-16  1.1043912266719149e-15  3.3598398606839225e-16  -1.3236654244919236e-17  -1.8436600435614723e-17  -8.2801591539331987e-18  5.2964760855311277e-17  1.3436274467667036e-17  2.5628381783917958e-17  9.8579623572566395e-17  9.2739852444885771e-17  -4.1718462960377436e-16  -4.6894265946051854e-16  1.4603531171593963e-15  1.5771429256399308e-15  -2.2696849817978784e-15  -1.7444683063635327e-15  2.6871265218205570e-15  1.1109382391632152e-15  -2.2050148724846652e-15  -6.1789498497191572e-16  1.1043912266719133e-15  4.0222399561482855e-16  -1.8413076894323839e-16  -9.0649031916834335e-17  -6.0045997773614711e-18  2.8040110129445082e-19  2.4465880165243399e-17  5.4339931463884661e-18  1.0318012167250561e-17  2.8435467494007494e-17  4.5616309671993683e-17  -9.0323573447058126e-17  -1.7565580571370127e-16  3.4502789252988520e-16  4.1093136051517301e-16  -6.3574864567694686e-16  -1.9294471557806058e-16  8.8990357576228800e-16  -1.1660298344774123e-16  -6.3207203384696172e-16  3.18011206