<?xml version="1.0"?>
<VTKFile type="UnstructuredGrid"  version="0.1"  >
<UnstructuredGrid>
<Piece  NumberOfPoints="441" NumberOfCells="800">
<Points>
<DataArray  type="Float64"  NumberOfComponents="3"  format="ascii">-2 -2 0  -1.8 -2 0  -1.6 -2 0  -1.4 -2 0  -1.2 -2 0  -1 -2 0  -0.8 -2 0  -0.6000000000000001 -2 0  -0.3999999999999999 -2 0  -0.2 -2 0  0 -2 0  0.2000000000000002 -2 0  0.3999999999999999 -2 0  0.6000000000000001 -2 0  0.7999999999999998 -2 0  1 -2 0  1.2 -2 0  1.4 -2 0  1.6 -2 0  1.8 -2 0  2 -2 0  -2 -1.8 0  -1.8 -1.8 0  -1.6 -1.8 0  -1.4 -1.8 0  -1.2 -1.8 0  -1 -1.8 0  -0.8 -1.8 0  -0.6000000000000001 -1.8 0  -0.3999999999999999 -1.8 0  -0.2 -1.8 0  0 -1.8 0  0.2000000000000002 -1.8 0  0.3999999999999999 -1.8 0  0.6000000000000001 -1.8 0  0.7999999999999998 -1.8 0  1 -1.8 0  1.2 -1.8 0  1.4 -1.8 0  1.6 -1.8 0  1.8 -1.8 0  2 -1.8 0  -2 -1.6 0  -1.8 -1.6 0  -1.6 -1.6 0  -1.4 -1.6 0  -1.2 -1.6 0  -1 -1.6 0  -0.8 -1.6 0  -0.6000000000000001 -1.6 0  -0.3999999999999999 -1.6 0  -0.2 -1.6 0  0 -1.6 0  0.2000000000000002 -1.6 0  0.3999999999999999 -1.6 0  0.6000000000000001 -1.6 0  0.7999999999999998 -1.6 0  1 -1.6 0  1.2 -1.6 0  1.4 -1.6 0  1.6 -1.6 0  1.8 -1.6 0  2 -1.6 0  -2 -1.4 0  -1.8 -1.4 0  -1.6 -1.4 0  -1.4 -1.4 0  -1.2 -1.4 0  -1 -1.4 0  -0.8 -1.4 0  -0.6000000000000001 -1.4 0  -0.3999999999999999 -1.4 0  -0.2 -1.4 0  0 -1.4 0  0.2000000000000002 -1.4 0  0.3999999999999999 -1.4 0  0.6000000000000001 -1.4 0  0.7999999999999998 -1.4 0  1 -1.4 0  1.2 -1.4 0  1.4 -1.4 0  1.6 -1.4 0  1.8 -1.4 0  2 -1.4 0  -2 -1.2 0  -1.8 -1.2 0  -1.6 -1.2 0  -1.4 -1.2 0  -1.2 -1.2 0  -1 -1.2 0  -0.8 -1.2 0  -0.6000000000000001 -1.2 0  -0.3999999999999999 -1.2 0  -0.2 -1.2 0  0 -1.2 0  0.2000000000000002 -1.2 0  0.3999999999999999 -1.2 0  0.6000000000000001 -1.2 0  0.7999999999999998 -1.2 0  1 -1.2 0  1.2 -1.2 0  1.4 -1.2 0  1.6 -1.2 0  1.8 -1.2 0  2 -1.2 0  -2 -1 0  -1.8 -1 0  -1.6 -1 0  -1.4 -1 0  -1.2 -1 0  -1 -1 0  -0.8 -1 0  -0.6000000000000001 -1 0  -0.3999999999999999 -1 0  -0.2 -1 0  0 -1 0  0.2000000000000002 -1 0  0.3999999999999999 -1 0  0.6000000000000001 -1 0  0.7999999999999998 -1 0  1 -1 0  1.2 -1 0  1.4 -1 0  1.6 -1 0  1.8 -1 0  2 -1 0  -2 -0.8 0  -1.8 -0.8 0  -1.6 -0.8 0  -1.4 -0.8 0  -1.2 -0.8 0  -1 -0.8 0  -0.8 -0.8 0  -0.6000000000000001 -0.8 0  -0.3999999999999999 -0.8 0  -0.2 -0.8 0  0 -0.8 0  0.2000000000000002 -0.8 0  0.3999999999999999 -0.8 0  0.6000000000000001 -0.8 0  0.7999999999999998 -0.8 0  1 -0.8 0  1.2 -0.8 0  1.4 -0.8 0  1.6 -0.8 0  1.8 -0.8 0  2 -0.8 0  -2 -0.6000000000000001 0  -1.8 -0.6000000000000001 0  -1.6 -0.6000000000000001 0  -1.4 -0.6000000000000001 0  -1.2 -0.6000000000000001 0  -1 -0.6000000000000001 0  -0.8 -0.6000000000000001 0  -0.6000000000000001 -0.6000000000000001 0  -0.3999999999999999 -0.6000000000000001 0  -0.2 -0.6000000000000001 0  0 -0.6000000000000001 0  0.2000000000000002 -0.6000000000000001 0  0.3999999999999999 -0.6000000000000001 0  0.6000000000000001 -0.6000000000000001 0  0.7999999999999998 -0.6000000000000001 0  1 -0.6000000000000001 0  1.2 -0.6000000000000001 0  1.4 -0.6000000000000001 0  1.6 -0.6000000000000001 0  1.8 -0.6000000000000001 0  2 -0.6000000000000001 0  -2 -0.3999999999999999 0  -1.8 -0.3999999999999999 0  -1.6 -0.3999999999999999 0  -1.4 -0.3999999999999999 0  -1.2 -0.3999999999999999 0  -1 -0.3999999999999999 0  -0.8 -0.3999999999999999 0  -0.6000000000000001 -0.3999999999999999 0  -0.3999999999999999 -0.3999999999999999 0  -0.2 -0.3999999999999999 0  0 -0.3999999999999999 0  0.2000000000000002 -0.3999999999999999 0  0.3999999999999999 -0.3999999999999999 0  0.6000000000000001 -0.3999999999999999 0  0.7999999999999998 -0.3999999999999999 0  1 -0.3999999999999999 0  1.2 -0.3999999999999999 0  1.4 -0.3999999999999999 0  1.6 -0.3999999999999999 0  1.8 -0.3999999999999999 0  2 -0.3999999999999999 0  -2 -0.2 0  -1.8 -0.2 0  -1.6 -0.2 0  -1.4 -0.2 0  -1.2 -0.2 0  -1 -0.2 0  -0.8 -0.2 0  -0.6000000000000001 -0.2 0  -0.3999999999999999 -0.2 0  -0.2 -0.2 0  0 -0.2 0  0.2000000000000002 -0.2 0  0.3999999999999999 -0.2 0  0.6000000000000001 -0.2 0  0.7999999999999998 -0.2 0  1 -0.2 0  1.2 -0.2 0  1.4 -0.2 0  1.6 -0.2 0  1.8 -0.2 0  2 -0.2 0  -2 0 0  -1.8 0 0  -1.6 0 0  -1.4 0 0  -1.2 0 0  -1 0 0  -0.8 0 0  -0.6000000000000001 0 0  -0.3999999999999999 0 0  -0.2 0 0  0 0 0  0.2000000000000002 0 0  0.3999999999999999 0 0  0.6000000000000001 0 0  0.7999999999999998 0 0  1 0 0  1.2 0 0  1.4 0 0  1.6 0 0  1.8 0 0  2 0 0  -2 0.2000000000000002 0  -1.8 0.2000000000000002 0  -1.6 0.2000000000000002 0  -1.4 0.2000000000000002 0  -1.2 0.2000000000000002 0  -1 0.2000000000000002 0  -0.8 0.2000000000000002 0  -0.6000000000000001 0.2000000000000002 0  -0.3999999999999999 0.2000000000000002 0  -0.2 0.2000000000000002 0  0 0.2000000000000002 0  0.2000000000000002 0.2000000000000002 0  0.3999999999999999 0.2000000000000002 0  0.6000000000000001 0.2000000000000002 0  0.7999999999999998 0.2000000000000002 0  1 0.2000000000000002 0  1.2 0.2000000000000002 0  1.4 0.2000000000000002 0  1.6 0.2000000000000002 0  1.8 0.2000000000000002 0  2 0.2000000000000002 0  -2 0.3999999999999999 0  -1.8 0.3999999999999999 0  -1.6 0.3999999999999999 0  -1.4 0.3999999999999999 0  -1.2 0.3999999999999999 0  -1 0.3999999999999999 0  -0.8 0.3999999999999999 0  -0.6000000000000001 0.3999999999999999 0  -0.3999999999999999 0.3999999999999999 0  -0.2 0.3999999999999999 0  0 0.3999999999999999 0  0.2000000000000002 0.3999999999999999 0  0.3999999999999999 0.3999999999999999 0  0.6000000000000001 0.3999999999999999 0  0.7999999999999998 0.3999999999999999 0  1 0.3999999999999999 0  1.2 0.3999999999999999 0  1.4 0.3999999999999999 0  1.6 0.3999999999999999 0  1.8 0.3999999999999999 0  2 0.3999999999999999 0  -2 0.6000000000000001 0  -1.8 0.6000000000000001 0  -1.6 0.6000000000000001 0  -1.4 0.6000000000000001 0  -1.2 0.6000000000000001 0  -1 0.6000000000000001 0  -0.8 0.6000000000000001 0  -0.6000000000000001 0.6000000000000001 0  -0.3999999999999999 0.6000000000000001 0  -0.2 0.6000000000000001 0  0 0.6000000000000001 0  0.2000000000000002 0.6000000000000001 0  0.3999999999999999 0.6000000000000001 0  0.6000000000000001 0.6000000000000001 0  0.7999999999999998 0.6000000000000001 0  1 0.6000000000000001 0  1.2 0.6000000000000001 0  1.4 0.6000000000000001 0  1.6 0.6000000000000001 0  1.8 0.6000000000000001 0  2 0.6000000000000001 0  -2 0.7999999999999998 0  -1.8 0.7999999999999998 0  -1.6 0.7999999999999998 0  -1.4 0.7999999999999998 0  -1.2 0.7999999999999998 0  -1 0.7999999999999998 0  -0.8 0.7999999999999998 0  -0.6000000000000001 0.7999999999999998 0  -0.3999999999999999 0.7999999999999998 0  -0.2 0.7999999999999998 0  0 0.7999999999999998 0  0.2000000000000002 0.7999999999999998 0  0.3999999999999999 0.7999999999999998 0  0.6000000000000001 0.7999999999999998 0  0.7999999999999998 0.7999999999999998 0  1 0.7999999999999998 0  1.2 0.7999999999999998 0  1.4 0.7999999999999998 0  1.6 0.7999999999999998 0  1.8 0.7999999999999998 0  2 0.7999999999999998 0  -2 1 0  -1.8 1 0  -1.6 1 0  -1.4 1 0  -1.2 1 0  -1 1 0  -0.8 1 0  -0.6000000000000001 1 0  -0.3999999999999999 1 0  -0.2 1 0  0 1 0  0.2000000000000002 1 0  0.3999999999999999 1 0  0.6000000000000001 1 0  0.7999999999999998 1 0  1 1 0  1.2 1 0  1.4 1 0  1.6 1 0  1.8 1 0  2 1 0  -2 1.2 0  -1.8 1.2 0  -1.6 1.2 0  -1.4 1.2 0  -1.2 1.2 0  -1 1.2 0  -0.8 1.2 0  -0.6000000000000001 1.2 0  -0.3999999999999999 1.2 0  -0.2 1.2 0  0 1.2 0  0.2000000000000002 1.2 0  0.3999999999999999 1.2 0  0.6000000000000001 1.2 0  0.7999999999999998 1.2 0  1 1.2 0  1.2 1.2 0  1.4 1.2 0  1.6 1.2 0  1.8 1.2 0  2 1.2 0  -2 1.4 0  -1.8 1.4 0  -1.6 1.4 0  -1.4 1.4 0  -1.2 1.4 0  -1 1.4 0  -0.8 1.4 0  -0.6000000000000001 1.4 0  -0.3999999999999999 1.4 0  -0.2 1.4 0  0 1.4 0  0.2000000000000002 1.4 0  0.3999999999999999 1.4 0  0.6000000000000001 1.4 0  0.7999999999999998 1.4 0  1 1.4 0  1.2 1.4 0  1.4 1.4 0  1.6 1.4 0  1.8 1.4 0  2 1.4 0  -2 1.6 0  -1.8 1.6 0  -1.6 1.6 0  -1.4 1.6 0  -1.2 1.6 0  -1 1.6 0  -0.8 1.6 0  -0.6000000000000001 1.6 0  -0.3999999999999999 1.6 0  -0.2 1.6 0  0 1.6 0  0.2000000000000002 1.6 0  0.3999999999999999 1.6 0  0.6000000000000001 1.6 0  0.7999999999999998 1.6 0  1 1.6 0  1.2 1.6 0  1.4 1.6 0  1.6 1.6 0  1.8 1.6 0  2 1.6 0  -2 1.8 0  -1.8 1.8 0  -1.6 1.8 0  -1.4 1.8 0  -1.2 1.8 0  -1 1.8 0  -0.8 1.8 0  -0.6000000000000001 1.8 0  -0.3999999999999999 1.8 0  -0.2 1.8 0  0 1.8 0  0.2000000000000002 1.8 0  0.3999999999999999 1.8 0  0.6000000000000001 1.8 0  0.7999999999999998 1.8 0  1 1.8 0  1.2 1.8 0  1.4 1.8 0  1.6 1.8 0  1.8 1.8 0  2 1.8 0  -2 2 0  -1.8 2 0  -1.6 2 0  -1.4 2 0  -1.2 2 0  -1 2 0  -0.8 2 0  -0.6000000000000001 2 0  -0.3999999999999999 2 0  -0.2 2 0  0 2 0  0.2000000000000002 2 0  0.3999999999999999 2 0  0.6000000000000001 2 0  0.7999999999999998 2 0  1 2 0  1.2 2 0  1.4 2 0  1.6 2 0  1.8 2 0  2 2 0  </DataArray>
</Points>
<Cells>
[...]
<PointData  Scalars="f_8"> 
<DataArray  type="Float64"  Name="f_8"  format="ascii">8.2146378229502867e-02  8.0784643785690682e-02  7.7465936086558843e-02  7.2421585956182283e-02  6.6007571338625851e-02  5.8656379013084563e-02  5.0825406983531926e-02  4.2949003830356547e-02  3.5400144505052092e-02  2.8465509085437251e-02  2.2335055906230788e-02  1.7104726700973728e-02  1.2789171413038460e-02  9.3405560602930499e-03  6.6695831778913854e-03  4.6655873502551796e-03  3.2136565417029434e-03  2.2078695855776206e-03  1.5607024004521137e-03  1.2093157020827644e-03  1.1197728251800202e-03  8.1633194091206826e-02  8.0556001934903212e-02  7.7432320863728893e-02  7.2516784411027477e-02  6.6178635410806777e-02  5.8859910369515440e-02  5.1026940892500226e-02  4.3123418644607760e-02  3.5531869609079711e-02  2.8547960452984977e-02  2.2369216688138994e-02  1.7097104361290593e-02  1.2749505447591973e-02  9.2796463472680467e-03  6.5975026747016347e-03  4.5903846608385717e-03  3.1404862060243595e-03  2.1383339671109522e-03  1.4920466335958176e-03  1.1329556956957874e-03  1.0183916584979834e-03  8.1585821012652576e-02  8.0529242115296842e-02  7.7443073798552114e-02  7.2564392379558140e-02  6.6252832040708712e-02  5.8946334147239043e-02  5.1111087268297266e-02  4.3193323484750891e-02  3.5579620527587806e-02  2.8570143225373171e-02  2.2366494168649741e-02  1.7073209684941956e-02  1.2709963943561373e-02  9.2305104955177561e-03  6.5443060397023384e-03  4.5374217709686498e-03  3.0904354949604133e-03  2.0921844708078740e-03  1.4492835725487100e-03  1.0920204062100981e-03  9.7758043581736595e-04  8.1608542122932407e-02  8.0554380500320225e-02  7.7473764677920512e-02  7.2600749261032202e-02  6.6292228225073108e-02  5.8984485620360877e-02  5.1143352615981526e-02  4.3215840907248899e-02  3.5590060882377289e-02  2.8567998866542717e-02  2.2352941708069871e-02  1.7050666876809371e-02  1.2681497636357595e-02  9.1992457083416006e-03  6.5129475695518821e-03  4.5079466880082837e-03  3.0639644854047786e-03  2.0690043474345344e-03  1.4289771464157815e-03  1.0736601504338313e-03  9.5994766300244695e-04  8.1630718940557859e-02  8.0576646040897495e-02  7.7495855014371659e-02  7.2621952988327548e-02  6.6311384482295080e-02  5.9000204181522908e-02  5.1154343405571914e-02  4.3221229578979933e-02  3.5589595918968736e-02  2.8562104137356430e-02  2.2342618907959497e-02  1.7037290876862239e-02  1.2666566737288424e-02  9.1841473641424334e-03  6.4987834452161939e-03  4.4954371356420355e-03  3.0534298610226467e-03  2.0604048390893393e-03  1.4219862677858643e-03  1.0677488726153991e-03  9.5446334590108882e-04  8.1641489914246010e-02  8.0587255935943264e-02  7.7505848309654721e-02  7.2630843437123407e-02  6.6318683977410364e-02  5.9005486968738419e-02  5.1157325148887871e-02  4.3221833136515522e-02  3.5587980325104226e-02  2.8558646191255362e-02  2.2337851986404540e-02  1.7031817574759123e-02  1.2660967283663978e-02  9.1789038920339211e-03  6.4942329840172201e-03  4.4917568275635875e-03  3.0506495460672126e-03  2.0584369525310808e-03  1.4206616718635411e-03  1.0668492659075513e-03  9.5374498924597352e-04  8.1644923539830994e-02  8.0590592075986636e-02  7.7508892306460714e-02  7.2633415365184403e-02  6.6320635802865249e-02  5.9006721477897955e-02  5.1157812030326238e-02  4.3221616679124150e-02  3.5587174831383926e-02  2.8557418682805546e-02  2.2336395615816192e-02  1.7030321848115863e-02  1.2659591829130918e-02  9.1777610440292277e-03  6.4933816071222001e-03  4.4912066629404215e-03  3.0503729192035284e-03  2.0583835130149109e-03  1.4207720097709781e-03  1.0670644315032435e-03  9.5401062083019577e-04  8.1645601652139396e-02  8.0591233413697227e-02  7.7509448992506266e-02  7.2633847648373412e-02  6.6320917128531442e-02  5.9006842406822697e-02  5.1157782007299084e-02  4.3221462838066819e-02  3.5586937642757194e-02  2.8557145111750695e-02  2.2336131227834059e-02  1.7030103655037539e-02  1.2659443463614667e-02  9.1776911662886217e-03  6.4933855416574567e-03  4.4912704497439429e-03  3.0504784829654898e-03  2.0585135921731912e-03  1.4209137766914345e-03  1.0672112128844149e-03  9.5416162079193167e-04  8.1645650318451682e-02  8.0591272303963596e-02  7.7509472298479778e-02  7.2633851851847536e-02  6.6320901748594077e-02  5.9006810280459260e-02  5.1157738967889291e-02  4.3221416768010314e-02  3.5586897036952746e-02  2.8557117446692759e-02  2.2336121520733738e-02  1.7030113571671380e-02  1.2659471190876345e-02  9.1777320530758572e-03  6.4934333056406767e-03  4.4913186183160505e-03  3.0505217200532393e-03  2.0585486480273018e-03  1.4209399381645668e-03  1.0672302676547501e-03  9.5417743493129753e-04  8.1645638688155678e-02  8.0591259106400234e-02  7.7509457816087854e-02  7.2633836750717884e-02  6.6320887057116432e-02  5.9006797277365623e-02  5.1157728984754465e-02  4.3221410936213747e-02  3.5586896032826047e-02  2.8557121301058915e-02  2.2336129551684378e-02  1.7030124470415794e-02  1.2659483247500297e-02  9.1777434670917805e-03  6.4934425013689788e-03  4.4913244872344642e-03  3.0505237403296412e-03  2.0585468742347684e-03  1.4209348950726536e-03  1.0672228060047092e-03  9.5416860649705367e-04  8.1645636545494824e-02  8.0591256895653524e-02  7.7509455714551992e-02  7.2633834960741869e-02  6.6320885774239752e-02  5.9006796652739640e-02  5.1157729088445798e-02  4.3221411730020330e-02  3.5586897361435561e-02  2.8557122907721038e-02  2.2336131118899320e-02  1.7030125678693872e-02  1.2659483838502374e-02  9.1777432942295612e-03  6.4934415530646114e-03  4.4913228753653642e-03  3.0505216566752030e-03  2.0585445275347830e-03  1.4209324473398103e-03  1.0672203271765721e-03  9.5416606146149616e-04  8.1645636791939841e-02  8.0591257114163706e-02  7.7509456051928494e-02  7.2633835513756462e-02  6.6320886576563792e-02  5.9006797674201965e-02  5.1157730245318944e-02  4.3221412903817445e-02  3.5586898422774613e-02  2.8557123741158447e-02  2.2336131644384458e-02  1.7030125865692365e-02  1.2659483710072207e-02  9.1777429203528677e-03  6.4934410349281263e-03  4.4913223243593734e-03  3.0505211729456262e-03  2.0585441825841438e-03  1.4209322735658297e-03  1.0672203150115069e-03  9.5416616282886226e-04  8.1645622091765568e-02  8.0591243440933297e-02  7.7509444278770601e-02  7.2633826217208070e-02  6.6320880047822009e-02  5.9006793948213870e-02  5.1157729139328943e-02  4.3221414061625961e-02  3.5586901364182022e-02  2.8557127916493372e-02  2.2336136491898924e-02  1.7030130866653372e-02  1.2659488434688412e-02  9.1777470585062571e-03  6.4934444088011918e-03  4.4913248839762296e-03  3.0505229785531391e-03  2.0585453785256350e-03  1.4209330569376710e-03  1.0672209001996275e-03  9.5416674175283201e-04  8.1645567776868613e-02  8.0591193733876798e-02  7.7509398189238812e-02  7.2633782768074973e-02  6.6320838742799551e-02  5.9006754998807191e-02  5.1157693423650341e-02  4.3221382858434763e-02  3.5586875964335046e-02  2.8557109240125347e-02  2.2336124824338825e-02  1.7030125777280174e-02  1.2659488880820940e-02  9.1777516233584617e-03  6.4934515935505853e-03  4.4913333724549975e-03  3.0505318124067170e-03  2.0585540099168267e-03  1.4209412753873887e-03  1.0672286548772886e-03  9.5417389969920327e-04  8.1645720040417050e-02  8.0591343607054333e-02  7.7509513943662955e-02  7.2633838959676483e-02  6.6320819616686871e-02  5.9006656286657501e-02  5.1157522205897706e-02  4.3221155522149154e-02  3.5586614722425254e-02  2.8556838014671716e-02  2.2335865401698393e-02  1.7029894983382535e-02  1.2659297175572860e-02  9.1776031063853288e-03  6.4933450798703328e-03  4.4912640168610516e-03  3.0504927512092325e-03  2.0585376124375061e-03  1.4209397949508094e-03  1.0672342805231139e-03  9.5417839056463139e-04  8.1647786452263477e-02  8.0593329312719675e-02  7.7511246017825275e-02  7.2635172124600786e-02  6.6321650473538621e-02  5.9006934527995249e-02  5.1157255689855054e-02  4.3220406988121733e-02  3.5585490085767502e-02  2.8555468535216157e-02  2.2334387590920299e-02  1.7028432386818951e-02  1.2657947209341122e-02  9.1764304350199638e-03  6.4923812424105779e-03  4.4905116743247661e-03  3.0499323182204292e-03  2.0581341512372663e-03  1.4206486962858882e-03  1.0670051495200008e-03  9.5395741692000044e-04  8.1656905407851796e-02  8.0602147499417492e-02  7.7519266785894811e-02  7.2641923877200018e-02  6.6326724796276798e-02  5.9010040901848158e-02  5.1158271822762669e-02  4.3219404985800243e-02  3.5582727882933401e-02  2.8551347873786589e-02  2.2329389573056781e-02  1.7023046405891491e-02  1.2652608375001390e-02  9.1714758524482631e-03  6.4880290145030153e-03  4.4868605523476690e-03  3.0469760716413802e-03  2.0557835039817320e-03  1.4187547494001970e-03  1.0653806839292675e-03  9.5239523720169132e-04  8.1680203060306864e-02  8.0625103491197836e-02  7.7541328418379699e-02  7.2662189881865194e-02  6.6344026529203765e-02  5.9023184628902804e-02  5.1166323569098573e-02  4.3221915199090119e-02  3.5579834474161930e-02  2.8543743827828625e-02  2.2318180880312285e-02  1.7009549120650981e-02  1.2638138215029040e-02  9.1571734535457420e-03  6.4747454496736304e-03  4.4751082090360239e-03  3.0369349891006580e-03  2.0473456073836775e-03  1.4115881099143188e-03  1.0590008642256906e-03  9.4623744564865616e-04  8.1711134620813600e-02  8.0658088113151200e-02  7.7578627018397225e-02  7.2703144203801959e-02  6.6385631224878505e-02  5.9061247295440933e-02  5.1196693715453712e-02  4.3241462434318166e-02  3.5587013847182089e-02  2.8538719246898027e-02  2.2302579495243134e-02  1.6985980344555326e-02  1.2609627544712610e-02  9.1266402357652581e-03  6.4446095689783163e-03  4.4470601621298253e-03  3.0118613413486822e-03  2.0253762466483612e-03  1.3922254798895630e-03  1.0413011414592581e-03  9.2903076056445220e-04  8.1677854905975456e-02  8.0646590120414155e-02  7.7603264771313685e-02  7.2761932205425414e-02  6.6467775525579323e-02  5.9152411838754942e-02  5.1282776430874220e-02  4.3311130282104308e-02  3.5633081219737801e-02  2.8558480446264311e-02  2.2297301316062872e-02  1.6959843532112825e-02  1.2568433409638115e-02  9.0765625994338687e-03  6.3911887748899464e-03  4.3945336742027032e-03  2.9628338202342917e-03  1.9807738993673106e-03  1.3514701501486099e-03  1.0026912241529913e-03  8.9044775518645975e-04  8.1172386904422425e-02  8.0421226530930132e-02  7.7571832400481655e-02  7.2860322341990857e-02  6.6643980289351840e-02  5.9362957174406962e-02  5.1492379252628555e-02  4.3493473718154797e-02  3.5771401524534327e-02  2.8645308868210352e-02  2.2333218457962184e-02  1.6951460799336352e-02  1.2526000990956817e-02  9.0116276392746865e-03  6.3146294030360737e-03  4.3151271037198957e-03  2.8863297259750851e-03  1.9092699491893050e-03  1.2827300704515382e-03  9.2888078774310413e-04  7.9552833578132038e-04  </DataArray> 
</PointData> 
</Piece>
</UnstructuredGrid>
</VTKFile>