<?xml version="1.0"?>
<VTKFile type="UnstructuredGrid"  version="0.1"  >
<UnstructuredGrid>
<Piece  NumberOfPoints="441" NumberOfCells="800">
<Points>
<DataArray  type="Float64"  NumberOfComponents="3"  format="ascii">-2 -2 0  -1.8 -2 0  -1.6 -2 0  -1.4 -2 0  -1.2 -2 0  -1 -2 0  -0.8 -2 0  -0.6000000000000001 -2 0  -0.3999999999999999 -2 0  -0.2 -2 0  0 -2 0  0.2000000000000002 -2 0  0.3999999999999999 -2 0  0.6000000000000001 -2 0  0.7999999999999998 -2 0  1 -2 0  1.2 -2 0  1.4 -2 0  1.6 -2 0  1.8 -2 0  2 -2 0  -2 -1.8 0  -1.8 -1.8 0  -1.6 -1.8 0  -1.4 -1.8 0  -1.2 -1.8 0  -1 -1.8 0  -0.8 -1.8 0  -0.6000000000000001 -1.8 0  -0.3999999999999999 -1.8 0  -0.2 -1.8 0  0 -1.8 0  0.2000000000000002 -1.8 0  0.3999999999999999 -1.8 0  0.6000000000000001 -1.8 0  0.7999999999999998 -1.8 0  1 -1.8 0  1.2 -1.8 0  1.4 -1.8 0  1.6 -1.8 0  1.8 -1.8 0  2 -1.8 0  -2 -1.6 0  -1.8 -1.6 0  -1.6 -1.6 0  -1.4 -1.6 0  -1.2 -1.6 0  -1 -1.6 0  -0.8 -1.6 0  -0.6000000000000001 -1.6 0  -0.3999999999999999 -1.6 0  -0.2 -1.6 0  0 -1.6 0  0.2000000000000002 -1.6 0  0.3999999999999999 -1.6 0  0.6000000000000001 -1.6 0  0.7999999999999998 -1.6 0  1 -1.6 0  1.2 -1.6 0  1.4 -1.6 0  1.6 -1.6 0  1.8 -1.6 0  2 -1.6 0  -2 -1.4 0  -1.8 -1.4 0  -1.6 -1.4 0  -1.4 -1.4 0  -1.2 -1.4 0  -1 -1.4 0  -0.8 -1.4 0  -0.6000000000000001 -1.4 0  -0.3999999999999999 -1.4 0  -0.2 -1.4 0  0 -1.4 0  0.2000000000000002 -1.4 0  0.3999999999999999 -1.4 0  0.6000000000000001 -1.4 0  0.7999999999999998 -1.4 0  1 -1.4 0  1.2 -1.4 0  1.4 -1.4 0  1.6 -1.4 0  1.8 -1.4 0  2 -1.4 0  -2 -1.2 0  -1.8 -1.2 0  -1.6 -1.2 0  -1.4 -1.2 0  -1.2 -1.2 0  -1 -1.2 0  -0.8 -1.2 0  -0.6000000000000001 -1.2 0  -0.3999999999999999 -1.2 0  -0.2 -1.2 0  0 -1.2 0  0.2000000000000002 -1.2 0  0.3999999999999999 -1.2 0  0.6000000000000001 -1.2 0  0.7999999999999998 -1.2 0  1 -1.2 0  1.2 -1.2 0  1.4 -1.2 0  1.6 -1.2 0  1.8 -1.2 0  2 -1.2 0  -2 -1 0  -1.8 -1 0  -1.6 -1 0  -1.4 -1 0  -1.2 -1 0  -1 -1 0  -0.8 -1 0  -0.6000000000000001 -1 0  -0.3999999999999999 -1 0  -0.2 -1 0  0 -1 0  0.2000000000000002 -1 0  0.3999999999999999 -1 0  0.6000000000000001 -1 0  0.7999999999999998 -1 0  1 -1 0  1.2 -1 0  1.4 -1 0  1.6 -1 0  1.8 -1 0  2 -1 0  -2 -0.8 0  -1.8 -0.8 0  -1.6 -0.8 0  -1.4 -0.8 0  -1.2 -0.8 0  -1 -0.8 0  -0.8 -0.8 0  -0.6000000000000001 -0.8 0  -0.3999999999999999 -0.8 0  -0.2 -0.8 0  0 -0.8 0  0.2000000000000002 -0.8 0  0.3999999999999999 -0.8 0  0.6000000000000001 -0.8 0  0.7999999999999998 -0.8 0  1 -0.8 0  1.2 -0.8 0  1.4 -0.8 0  1.6 -0.8 0  1.8 -0.8 0  2 -0.8 0  -2 -0.6000000000000001 0  -1.8 -0.6000000000000001 0  -1.6 -0.6000000000000001 0  -1.4 -0.6000000000000001 0  -1.2 -0.6000000000000001 0  -1 -0.6000000000000001 0  -0.8 -0.6000000000000001 0  -0.6000000000000001 -0.6000000000000001 0  -0.3999999999999999 -0.6000000000000001 0  -0.2 -0.6000000000000001 0  0 -0.6000000000000001 0  0.2000000000000002 -0.6000000000000001 0  0.3999999999999999 -0.6000000000000001 0  0.6000000000000001 -0.6000000000000001 0  0.7999999999999998 -0.6000000000000001 0  1 -0.6000000000000001 0  1.2 -0.6000000000000001 0  1.4 -0.6000000000000001 0  1.6 -0.6000000000000001 0  1.8 -0.6000000000000001 0  2 -0.6000000000000001 0  -2 -0.3999999999999999 0  -1.8 -0.3999999999999999 0  -1.6 -0.3999999999999999 0  -1.4 -0.3999999999999999 0  -1.2 -0.3999999999999999 0  -1 -0.3999999999999999 0  -0.8 -0.3999999999999999 0  -0.6000000000000001 -0.3999999999999999 0  -0.3999999999999999 -0.3999999999999999 0  -0.2 -0.3999999999999999 0  0 -0.3999999999999999 0  0.2000000000000002 -0.3999999999999999 0  0.3999999999999999 -0.3999999999999999 0  0.6000000000000001 -0.3999999999999999 0  0.7999999999999998 -0.3999999999999999 0  1 -0.3999999999999999 0  1.2 -0.3999999999999999 0  1.4 -0.3999999999999999 0  1.6 -0.3999999999999999 0  1.8 -0.3999999999999999 0  2 -0.3999999999999999 0  -2 -0.2 0  -1.8 -0.2 0  -1.6 -0.2 0  -1.4 -0.2 0  -1.2 -0.2 0  -1 -0.2 0  -0.8 -0.2 0  -0.6000000000000001 -0.2 0  -0.3999999999999999 -0.2 0  -0.2 -0.2 0  0 -0.2 0  0.2000000000000002 -0.2 0  0.3999999999999999 -0.2 0  0.6000000000000001 -0.2 0  0.7999999999999998 -0.2 0  1 -0.2 0  1.2 -0.2 0  1.4 -0.2 0  1.6 -0.2 0  1.8 -0.2 0  2 -0.2 0  -2 0 0  -1.8 0 0  -1.6 0 0  -1.4 0 0  -1.2 0 0  -1 0 0  -0.8 0 0  -0.6000000000000001 0 0  -0.3999999999999999 0 0  -0.2 0 0  0 0 0  0.2000000000000002 0 0  0.3999999999999999 0 0  0.6000000000000001 0 0  0.7999999999999998 0 0  1 0 0  1.2 0 0  1.4 0 0  1.6 0 0  1.8 0 0  2 0 0  -2 0.2000000000000002 0  -1.8 0.2000000000000002 0  -1.6 0.2000000000000002 0  -1.4 0.2000000000000002 0  -1.2 0.2000000000000002 0  -1 0.2000000000000002 0  -0.8 0.2000000000000002 0  -0.6000000000000001 0.2000000000000002 0  -0.3999999999999999 0.2000000000000002 0  -0.2 0.2000000000000002 0  0 0.2000000000000002 0  0.2000000000000002 0.2000000000000002 0  0.3999999999999999 0.2000000000000002 0  0.6000000000000001 0.2000000000000002 0  0.7999999999999998 0.2000000000000002 0  1 0.2000000000000002 0  1.2 0.2000000000000002 0  1.4 0.2000000000000002 0  1.6 0.2000000000000002 0  1.8 0.2000000000000002 0  2 0.2000000000000002 0  -2 0.3999999999999999 0  -1.8 0.3999999999999999 0  -1.6 0.3999999999999999 0  -1.4 0.3999999999999999 0  -1.2 0.3999999999999999 0  -1 0.3999999999999999 0  -0.8 0.3999999999999999 0  -0.6000000000000001 0.3999999999999999 0  -0.3999999999999999 0.3999999999999999 0  -0.2 0.3999999999999999 0  0 0.3999999999999999 0  0.2000000000000002 0.3999999999999999 0  0.3999999999999999 0.3999999999999999 0  0.6000000000000001 0.3999999999999999 0  0.7999999999999998 0.3999999999999999 0  1 0.3999999999999999 0  1.2 0.3999999999999999 0  1.4 0.3999999999999999 0  1.6 0.3999999999999999 0  1.8 0.3999999999999999 0  2 0.3999999999999999 0  -2 0.6000000000000001 0  -1.8 0.6000000000000001 0  -1.6 0.6000000000000001 0  -1.4 0.6000000000000001 0  -1.2 0.6000000000000001 0  -1 0.6000000000000001 0  -0.8 0.6000000000000001 0  -0.6000000000000001 0.6000000000000001 0  -0.3999999999999999 0.6000000000000001 0  -0.2 0.6000000000000001 0  0 0.6000000000000001 0  0.2000000000000002 0.6000000000000001 0  0.3999999999999999 0.6000000000000001 0  0.6000000000000001 0.6000000000000001 0  0.7999999999999998 0.6000000000000001 0  1 0.6000000000000001 0  1.2 0.6000000000000001 0  1.4 0.6000000000000001 0  1.6 0.6000000000000001 0  1.8 0.6000000000000001 0  2 0.6000000000000001 0  -2 0.7999999999999998 0  -1.8 0.7999999999999998 0  -1.6 0.7999999999999998 0  -1.4 0.7999999999999998 0  -1.2 0.7999999999999998 0  -1 0.7999999999999998 0  -0.8 0.7999999999999998 0  -0.6000000000000001 0.7999999999999998 0  -0.3999999999999999 0.7999999999999998 0  -0.2 0.7999999999999998 0  0 0.7999999999999998 0  0.2000000000000002 0.7999999999999998 0  0.3999999999999999 0.7999999999999998 0  0.6000000000000001 0.7999999999999998 0  0.7999999999999998 0.7999999999999998 0  1 0.7999999999999998 0  1.2 0.7999999999999998 0  1.4 0.7999999999999998 0  1.6 0.7999999999999998 0  1.8 0.7999999999999998 0  2 0.7999999999999998 0  -2 1 0  -1.8 1 0  -1.6 1 0  -1.4 1 0  -1.2 1 0  -1 1 0  -0.8 1 0  -0.6000000000000001 1 0  -0.3999999999999999 1 0  -0.2 1 0  0 1 0  0.2000000000000002 1 0  0.3999999999999999 1 0  0.6000000000000001 1 0  0.7999999999999998 1 0  1 1 0  1.2 1 0  1.4 1 0  1.6 1 0  1.8 1 0  2 1 0  -2 1.2 0  -1.8 1.2 0  -1.6 1.2 0  -1.4 1.2 0  -1.2 1.2 0  -1 1.2 0  -0.8 1.2 0  -0.6000000000000001 1.2 0  -0.3999999999999999 1.2 0  -0.2 1.2 0  0 1.2 0  0.2000000000000002 1.2 0  0.3999999999999999 1.2 0  0.6000000000000001 1.2 0  0.7999999999999998 1.2 0  1 1.2 0  1.2 1.2 0  1.4 1.2 0  1.6 1.2 0  1.8 1.2 0  2 1.2 0  -2 1.4 0  -1.8 1.4 0  -1.6 1.4 0  -1.4 1.4 0  -1.2 1.4 0  -1 1.4 0  -0.8 1.4 0  -0.6000000000000001 1.4 0  -0.3999999999999999 1.4 0  -0.2 1.4 0  0 1.4 0  0.2000000000000002 1.4 0  0.3999999999999999 1.4 0  0.6000000000000001 1.4 0  0.7999999999999998 1.4 0  1 1.4 0  1.2 1.4 0  1.4 1.4 0  1.6 1.4 0  1.8 1.4 0  2 1.4 0  -2 1.6 0  -1.8 1.6 0  -1.6 1.6 0  -1.4 1.6 0  -1.2 1.6 0  -1 1.6 0  -0.8 1.6 0  -0.6000000000000001 1.6 0  -0.3999999999999999 1.6 0  -0.2 1.6 0  0 1.6 0  0.2000000000000002 1.6 0  0.3999999999999999 1.6 0  0.6000000000000001 1.6 0  0.7999999999999998 1.6 0  1 1.6 0  1.2 1.6 0  1.4 1.6 0  1.6 1.6 0  1.8 1.6 0  2 1.6 0  -2 1.8 0  -1.8 1.8 0  -1.6 1.8 0  -1.4 1.8 0  -1.2 1.8 0  -1 1.8 0  -0.8 1.8 0  -0.6000000000000001 1.8 0  -0.3999999999999999 1.8 0  -0.2 1.8 0  0 1.8 0  0.2000000000000002 1.8 0  0.3999999999999999 1.8 0  0.6000000000000001 1.8 0  0.7999999999999998 1.8 0  1 1.8 0  1.2 1.8 0  1.4 1.8 0  1.6 1.8 0  1.8 1.8 0  2 1.8 0  -2 2 0  -1.8 2 0  -1.6 2 0  -1.4 2 0  -1.2 2 0  -1 2 0  -0.8 2 0  -0.6000000000000001 2 0  -0.3999999999999999 2 0  -0.2 2 0  0 2 0  0.2000000000000002 2 0  0.3999999999999999 2 0  0.6000000000000001 2 0  0.7999999999999998 2 0  1 2 0  1.2 2 0  1.4 2 0  1.6 2 0  1.8 2 0  2 2 0  </DataArray>
</Points>
<Cells>
[...]
<PointData  Scalars="f_8"> 
<DataArray  type="Float64"  Name="f_8"  format="ascii">8.3240780552152449e-02  8.1824102182279895e-02  7.8374444873300975e-02  7.3139305402214611e-02  6.6497662935726273e-02  5.8907738786664741e-02  5.0851258782478148e-02  4.2782100846030242e-02  3.5085867980294165e-02  2.8054346669401136e-02  2.1875793908311767e-02  1.6639293822775601e-02  1.2349565197583805e-02  8.9478044464501080e-03  6.3343413013805848e-03  4.3897884836196950e-03  2.9926186963585631e-03  2.0323638857389047e-03  1.4186602913252766e-03  1.0870378033708927e-03  1.0026650679935763e-03  8.2710219608258112e-02  8.1589928965942138e-02  7.8343593552258547e-02  7.3242348077622060e-02  6.6678713132722958e-02  5.9120901870554923e-02  5.1060227525287036e-02  4.2960701862021430e-02  3.5218273346370482e-02  2.8134379041120511e-02  2.1905283812079873e-02  1.6625781797162339e-02  1.2303781917428517e-02  8.8813401936077181e-03  6.2577854787820098e-03  4.3114394854471385e-03  2.9176824209338906e-03  1.9624005859700568e-03  1.3509010004312816e-03  1.0130400833766886e-03  9.0554710083016348e-04  8.2663010920229318e-02  8.1564147229467102e-02  7.8356726063274124e-02  7.3293445929722298e-02  6.6756753498818225e-02  5.9210648704025204e-02  5.1146451481497907e-02  4.3031029943886086e-02  3.5264755366836445e-02  2.8153890427882952e-02  2.1898993720498847e-02  1.6598009222420745e-02  1.2260592620520892e-02  8.8291953184523302e-03  6.2024583005462928e-03  4.2573027972904942e-03  2.8673688762132659e-03  1.9167772511530399e-03  1.3092937136329238e-03  9.7370548797228959e-04  8.6654036197577971e-04  8.2687196743933253e-02  8.1590802785447600e-02  7.8389000057102032e-02  7.3331331736594188e-02  6.6797402879433504e-02  5.9249534985370875e-02  5.1178754942380569e-02  4.3052834627605889e-02  3.5273820529922527e-02  2.8149916388292947e-02  2.1883432683772634e-02  1.6573560050982344e-02  1.2230554723280397e-02  8.7968441258939878e-03  6.1705579122601504e-03  4.2278106969360716e-03  2.8413322279309356e-03  1.8943830641650538e-03  1.2900204444640749e-03  9.5652736216721070e-04  8.5014577291601121e-04  8.2709904847480545e-02  8.1613584803564315e-02  7.8411539398379540e-02  7.3352853479921334e-02  6.6816680405297507e-02  5.9265128487819708e-02  5.1189360275864432e-02  4.3057610189075377e-02  3.5272592497619333e-02  2.8143216491705408e-02  2.1872377822999823e-02  1.6559624024357757e-02  1.2215300813003723e-02  8.7816832192120966e-03  6.1565765853181268e-03  4.2156867985489775e-03  2.8313310551739326e-03  1.8864112557813320e-03  1.2837092461942192e-03  9.5132045550758962e-04  8.4537586551116642e-04  8.2720602385513459e-02  8.1624113159374762e-02  7.8421426165005012e-02  7.3361597748718962e-02  6.6823785175496669e-02  5.9270168906859405e-02  5.1192065479656712e-02  4.3057928876009503e-02  3.5270718008288453e-02  2.8139561528388621e-02  2.1867505371197919e-02  1.6554153462152135e-02  1.2209813067676184e-02  8.7766458408238771e-03  6.1523011140131381e-03  4.2123204648488064e-03  2.8288761110478607e-03  1.8847602414548150e-03  1.2826837713643773e-03  9.5070379966105212e-04  8.4493438365912973e-04  8.2723874232372929e-02  8.1627286296387228e-02  7.8424307717626152e-02  7.3364010628240606e-02  6.6825585886149105e-02  5.9271266820521674e-02  5.1192438662170166e-02  4.3057630740860747e-02  3.5269870990661298e-02  2.8138337773022732e-02  2.1866098465163009e-02  1.6552747900179104e-02  1.2208558502515520e-02  8.7756413152690303e-03  6.1515912722045415e-03  4.2119024134587889e-03  2.8287131878038446e-03  1.8847979823877386e-03  1.2828638100349046e-03  9.5097283694680192e-04  8.4524715523015288e-04  8.2724474749963181e-02  8.1627850724337508e-02  7.8424791388007051e-02  7.3364377063452835e-02  6.6825811743309121e-02  5.9271345598503840e-02  5.1192382156189209e-02  4.3057467457525915e-02  3.5269641411599641e-02  2.8138087259994730e-02  2.1865869366289713e-02  1.6552572715857902e-02  1.2208455669050062e-02  8.7756143828682607e-03  6.1516312919658797e-03  4.2119925435268445e-03  2.8288341173668585e-03  1.8849328103689761e-03  1.2830013941048891e-03  9.5110915126254058e-04  8.4538467582751398e-04  8.2724505728408559e-02  8.1627872530970813e-02  7.8424799335775258e-02  7.3364368659663795e-02  6.6825787333884307e-02  5.9271308547764155e-02  5.1192338438792263e-02  4.3057424656553066e-02  3.5269607280421923e-02  2.8138068159685871e-02  2.1865868966455253e-02  1.6552591300000013e-02  1.2208490221583381e-02  8.7756594105871805e-03  6.1516801310276537e-03  4.2120387949969125e-03  2.8288728691692206e-03  1.8849614193712100e-03  1.2830197611103269e-03  9.5111955820753862e-04  8.4539132305362402e-04  8.2724493363842480e-02  8.1627858838275544e-02  7.8424784739885622e-02  7.3364353923108971e-02  6.6825773513820477e-02  5.9271296869859331e-02  5.1192330096992776e-02  4.3057420571836577e-02  3.5269607873346376e-02  2.8138073200720169e-02  2.1865877556605844e-02  1.6552602001571638e-02  1.2208501314382818e-02  8.7756692088120942e-03  6.1516872766350329e-03  4.2120424529028810e-03  2.8288727847789767e-03  1.8849578460046641e-03  1.2830133060168117e-03  9.5111101636045014e-04  8.4538156152202427e-04  8.2724491748263240e-02  8.1627857204106424e-02  7.8424783243149249e-02  7.3364352736654259e-02  6.6825772796171787e-02  5.9271296730093515e-02  5.1192330562493261e-02  4.3057421567341707e-02  3.5269609219319903e-02  2.8138074635828462e-02  2.1865878783044287e-02  1.6552602744610241e-02  1.2208501381423979e-02  8.7756685312096426e-03  6.1516859210032386e-03  4.2120405969830960e-03  2.8288706634297975e-03  1.8849556819355456e-03  1.2830112445306953e-03  9.5110908241243029e-04  8.4537965159506539e-04  8.2724492535954292e-02  8.1627857926014236e-02  7.8424784006959694e-02  7.3364353609747385e-02  6.6825773793612292e-02  5.9271297814682398e-02  5.1192331655434083e-02  4.3057422566688791e-02  3.5269610022419559e-02  2.8138075161446122e-02  2.1865878988897965e-02  1.6552602636777540e-02  1.2208501013643893e-02  8.7756679942918598e-03  6.1516853248909532e-03  4.2120400497827459e-03  2.8288702522803882e-03  1.8849554596780593e-03  1.2830112240564784e-03  9.5110923812023566e-04  8.4537992555514766e-04  8.2724479891270047e-02  8.1627846155952519e-02  7.8424774002637407e-02  7.3364345958245536e-02  6.6825768779173636e-02  5.9271295445644787e-02  5.1192331708058279e-02  4.3057424640054263e-02  3.5269613600617110e-02  2.8138079679307981e-02  2.1865883895906168e-02  1.6552607452207751e-02  1.2208505366159948e-02  8.7756716418068998e-03  6.1516881547903947e-03  4.2120420637820916e-03  2.8288715424592834e-03  1.8849561817085008e-03  1.2830115708065278e-03  9.5110941327475405e-04  8.4538011465274158e-04  8.2724421256208019e-02  8.1627792347424302e-02  7.8424724895170383e-02  7.3364301242536095e-02  6.6825728360073944e-02  5.9271259634565546e-02  5.1192301186777908e-02  4.3057400239773481e-02  3.5269595992765732e-02  2.8138069093626511e-02  2.1865879960464001e-02  1.6552609199889528e-02  1.2208511394188193e-02  8.7756803664638099e-03  6.1516980848461090e-03  4.2120520231214561e-03  2.8288807957896497e-03  1.8849644451444773e-03  1.2830189129185688e-03  9.5111606907114128e-04  8.4538624688154976e-04  8.2724516940606396e-02  8.1627888117646832e-02  7.8424792586568995e-02  7.3364318489642727e-02  6.6825681818058966e-02  5.9271146584207679e-02  5.1192129225786899e-02  4.3057185142802948e-02  3.5269358259270918e-02  2.8137830016710323e-02  2.1865658112741861e-02  1.6552418029347996e-02  1.2208358246294048e-02  8.7755668422655128e-03  6.1516213371625916e-03  4.2120064528059498e-03  2.8288596372868062e-03  1.8849608765619536e-03  1.2830265256532512e-03  9.5112873016634284e-04  8.4539754844692341e-04  8.2726400104604414e-02  8.1629695204173583e-02  7.8426355098221170e-02  7.3365496290451665e-02  6.6826377519650607e-02  5.9271316425591747e-02  5.1191787303232518e-02  4.3056398938749373e-02  3.5268235745837401e-02  2.8136501018292168e-02  2.1864254083282981e-02  1.6551054463155312e-02  1.2207122753382408e-02  8.7745140641737902e-03  6.1507740513632439e-03  4.2113609442050197e-03  2.8283929356583679e-03  1.8846377130680647e-03  1.2828046103428043e-03  9.5096189609660301e-04  8.4523717773271243e-04  8.2735313319588957e-02  8.1638300845431638e-02  7.8434142717508218e-02  7.3371986234117642e-02  6.6831162026414828e-02  5.9274116062367058e-02  5.1192500616072951e-02  4.3055125172711199e-02  3.5265260775294668e-02  2.8132249315446500e-02  2.1859219493178612e-02  1.6545726876831784e-02  1.2201926228377806e-02  8.7697662926941936e-03  6.1466699662586343e-03  4.2079771099546972e-03  2.8257057009886425e-03  1.8825472940957164e-03  1.2811588170783578e-03  9.4957609034320551e-04  8.4391009968205657e-04  8.2759006267095897e-02  8.1661611613013260e-02  7.8456454089048222e-02  7.3392333440807631e-02  6.6848326835076397e-02  5.9286885073860048e-02  5.1199960928617234e-02  4.3056889243039048e-02  3.5261558319604085e-02  2.8123876022012162e-02  2.1847374257057895e-02  1.6531792270025748e-02  1.2187249517427477e-02  8.7554851111105725e-03  6.1336055805884726e-03  4.1965970543748361e-03  2.8161421760816729e-03  1.8746507172360380e-03  1.2745668644319533e-03  9.4378493895689577e-04  8.3834259016754423e-04  8.2791656375877182e-02  8.1696320036029252e-02  7.8495433910241288e-02  7.3434763374105566e-02  6.6890978136616208e-02  5.9325363380238874e-02  5.1230006682709467e-02  4.3075393871652559e-02  3.5267126636270463e-02  2.8116912327853415e-02  2.1829780648989858e-02  1.6506431015260843e-02  1.2157334470462168e-02  8.7240391625312604e-03  6.1030692839458348e-03  4.1686171033704436e-03  2.7915229146165403e-03  1.8534262177492989e-03  1.2561469912168962e-03  9.2714200318880398e-04  8.2222668367988800e-04  8.2759339252111194e-02  8.1686644403425199e-02  7.8523156594621779e-02  7.3497509489545088e-02  6.6977168647110799e-02  5.9419813425340903e-02  5.1317952271198494e-02  4.3145174061974878e-02  3.5311598584355119e-02  2.8133725227075180e-02  2.1820748394149370e-02  1.6476334072324211e-02  1.2112504855991619e-02  8.6710333277374603e-03  6.0476337665039083e-03  4.1150348918477285e-03  2.7423272446550559e-03  1.8094066075549390e-03  1.2165633609046266e-03  8.9011597239733488e-04  7.8541049108288850e-04  8.2236874045259062e-02  8.1455911622824034e-02  7.8494650860028728e-02  7.3604035279165397e-02  6.7163808238249773e-02  5.9640538425634798e-02  5.1535526704774737e-02  4.3332111224623583e-02  3.5450792142232242e-02  2.8218085026421480e-02  2.1851734611611995e-02  1.6461668033691628e-02  1.2063523229805617e-02  8.6001605995133842e-03  5.9663237030138797e-03  4.0323380815300751e-03  2.6640363611889306e-03  1.7375494520019547e-03  1.1488606780687045e-03  8.1886738047936734e-04  6.9505259811184828e-04  </DataArray> 
</PointData> 
</Piece>
</UnstructuredGrid>
</VTKFile>