<?xml version="1.0"?>
<VTKFile type="UnstructuredGrid"  version="0.1"  >
<UnstructuredGrid>
<Piece  NumberOfPoints="441" NumberOfCells="800">
<Points>
<DataArray  type="Float64"  NumberOfComponents="3"  format="ascii">-2 -2 0  -1.8 -2 0  -1.6 -2 0  -1.4 -2 0  -1.2 -2 0  -1 -2 0  -0.8 -2 0  -0.6000000000000001 -2 0  -0.3999999999999999 -2 0  -0.2 -2 0  0 -2 0  0.2000000000000002 -2 0  0.3999999999999999 -2 0  0.6000000000000001 -2 0  0.7999999999999998 -2 0  1 -2 0  1.2 -2 0  1.4 -2 0  1.6 -2 0  1.8 -2 0  2 -2 0  -2 -1.8 0  -1.8 -1.8 0  -1.6 -1.8 0  -1.4 -1.8 0  -1.2 -1.8 0  -1 -1.8 0  -0.8 -1.8 0  -0.6000000000000001 -1.8 0  -0.3999999999999999 -1.8 0  -0.2 -1.8 0  0 -1.8 0  0.2000000000000002 -1.8 0  0.3999999999999999 -1.8 0  0.6000000000000001 -1.8 0  0.7999999999999998 -1.8 0  1 -1.8 0  1.2 -1.8 0  1.4 -1.8 0  1.6 -1.8 0  1.8 -1.8 0  2 -1.8 0  -2 -1.6 0  -1.8 -1.6 0  -1.6 -1.6 0  -1.4 -1.6 0  -1.2 -1.6 0  -1 -1.6 0  -0.8 -1.6 0  -0.6000000000000001 -1.6 0  -0.3999999999999999 -1.6 0  -0.2 -1.6 0  0 -1.6 0  0.2000000000000002 -1.6 0  0.3999999999999999 -1.6 0  0.6000000000000001 -1.6 0  0.7999999999999998 -1.6 0  1 -1.6 0  1.2 -1.6 0  1.4 -1.6 0  1.6 -1.6 0  1.8 -1.6 0  2 -1.6 0  -2 -1.4 0  -1.8 -1.4 0  -1.6 -1.4 0  -1.4 -1.4 0  -1.2 -1.4 0  -1 -1.4 0  -0.8 -1.4 0  -0.6000000000000001 -1.4 0  -0.3999999999999999 -1.4 0  -0.2 -1.4 0  0 -1.4 0  0.2000000000000002 -1.4 0  0.3999999999999999 -1.4 0  0.6000000000000001 -1.4 0  0.7999999999999998 -1.4 0  1 -1.4 0  1.2 -1.4 0  1.4 -1.4 0  1.6 -1.4 0  1.8 -1.4 0  2 -1.4 0  -2 -1.2 0  -1.8 -1.2 0  -1.6 -1.2 0  -1.4 -1.2 0  -1.2 -1.2 0  -1 -1.2 0  -0.8 -1.2 0  -0.6000000000000001 -1.2 0  -0.3999999999999999 -1.2 0  -0.2 -1.2 0  0 -1.2 0  0.2000000000000002 -1.2 0  0.3999999999999999 -1.2 0  0.6000000000000001 -1.2 0  0.7999999999999998 -1.2 0  1 -1.2 0  1.2 -1.2 0  1.4 -1.2 0  1.6 -1.2 0  1.8 -1.2 0  2 -1.2 0  -2 -1 0  -1.8 -1 0  -1.6 -1 0  -1.4 -1 0  -1.2 -1 0  -1 -1 0  -0.8 -1 0  -0.6000000000000001 -1 0  -0.3999999999999999 -1 0  -0.2 -1 0  0 -1 0  0.2000000000000002 -1 0  0.3999999999999999 -1 0  0.6000000000000001 -1 0  0.7999999999999998 -1 0  1 -1 0  1.2 -1 0  1.4 -1 0  1.6 -1 0  1.8 -1 0  2 -1 0  -2 -0.8 0  -1.8 -0.8 0  -1.6 -0.8 0  -1.4 -0.8 0  -1.2 -0.8 0  -1 -0.8 0  -0.8 -0.8 0  -0.6000000000000001 -0.8 0  -0.3999999999999999 -0.8 0  -0.2 -0.8 0  0 -0.8 0  0.2000000000000002 -0.8 0  0.3999999999999999 -0.8 0  0.6000000000000001 -0.8 0  0.7999999999999998 -0.8 0  1 -0.8 0  1.2 -0.8 0  1.4 -0.8 0  1.6 -0.8 0  1.8 -0.8 0  2 -0.8 0  -2 -0.6000000000000001 0  -1.8 -0.6000000000000001 0  -1.6 -0.6000000000000001 0  -1.4 -0.6000000000000001 0  -1.2 -0.6000000000000001 0  -1 -0.6000000000000001 0  -0.8 -0.6000000000000001 0  -0.6000000000000001 -0.6000000000000001 0  -0.3999999999999999 -0.6000000000000001 0  -0.2 -0.6000000000000001 0  0 -0.6000000000000001 0  0.2000000000000002 -0.6000000000000001 0  0.3999999999999999 -0.6000000000000001 0  0.6000000000000001 -0.6000000000000001 0  0.7999999999999998 -0.6000000000000001 0  1 -0.6000000000000001 0  1.2 -0.6000000000000001 0  1.4 -0.6000000000000001 0  1.6 -0.6000000000000001 0  1.8 -0.6000000000000001 0  2 -0.6000000000000001 0  -2 -0.3999999999999999 0  -1.8 -0.3999999999999999 0  -1.6 -0.3999999999999999 0  -1.4 -0.3999999999999999 0  -1.2 -0.3999999999999999 0  -1 -0.3999999999999999 0  -0.8 -0.3999999999999999 0  -0.6000000000000001 -0.3999999999999999 0  -0.3999999999999999 -0.3999999999999999 0  -0.2 -0.3999999999999999 0  0 -0.3999999999999999 0  0.2000000000000002 -0.3999999999999999 0  0.3999999999999999 -0.3999999999999999 0  0.6000000000000001 -0.3999999999999999 0  0.7999999999999998 -0.3999999999999999 0  1 -0.3999999999999999 0  1.2 -0.3999999999999999 0  1.4 -0.3999999999999999 0  1.6 -0.3999999999999999 0  1.8 -0.3999999999999999 0  2 -0.3999999999999999 0  -2 -0.2 0  -1.8 -0.2 0  -1.6 -0.2 0  -1.4 -0.2 0  -1.2 -0.2 0  -1 -0.2 0  -0.8 -0.2 0  -0.6000000000000001 -0.2 0  -0.3999999999999999 -0.2 0  -0.2 -0.2 0  0 -0.2 0  0.2000000000000002 -0.2 0  0.3999999999999999 -0.2 0  0.6000000000000001 -0.2 0  0.7999999999999998 -0.2 0  1 -0.2 0  1.2 -0.2 0  1.4 -0.2 0  1.6 -0.2 0  1.8 -0.2 0  2 -0.2 0  -2 0 0  -1.8 0 0  -1.6 0 0  -1.4 0 0  -1.2 0 0  -1 0 0  -0.8 0 0  -0.6000000000000001 0 0  -0.3999999999999999 0 0  -0.2 0 0  0 0 0  0.2000000000000002 0 0  0.3999999999999999 0 0  0.6000000000000001 0 0  0.7999999999999998 0 0  1 0 0  1.2 0 0  1.4 0 0  1.6 0 0  1.8 0 0  2 0 0  -2 0.2000000000000002 0  -1.8 0.2000000000000002 0  -1.6 0.2000000000000002 0  -1.4 0.2000000000000002 0  -1.2 0.2000000000000002 0  -1 0.2000000000000002 0  -0.8 0.2000000000000002 0  -0.6000000000000001 0.2000000000000002 0  -0.3999999999999999 0.2000000000000002 0  -0.2 0.2000000000000002 0  0 0.2000000000000002 0  0.2000000000000002 0.2000000000000002 0  0.3999999999999999 0.2000000000000002 0  0.6000000000000001 0.2000000000000002 0  0.7999999999999998 0.2000000000000002 0  1 0.2000000000000002 0  1.2 0.2000000000000002 0  1.4 0.2000000000000002 0  1.6 0.2000000000000002 0  1.8 0.2000000000000002 0  2 0.2000000000000002 0  -2 0.3999999999999999 0  -1.8 0.3999999999999999 0  -1.6 0.3999999999999999 0  -1.4 0.3999999999999999 0  -1.2 0.3999999999999999 0  -1 0.3999999999999999 0  -0.8 0.3999999999999999 0  -0.6000000000000001 0.3999999999999999 0  -0.3999999999999999 0.3999999999999999 0  -0.2 0.3999999999999999 0  0 0.3999999999999999 0  0.2000000000000002 0.3999999999999999 0  0.3999999999999999 0.3999999999999999 0  0.6000000000000001 0.3999999999999999 0  0.7999999999999998 0.3999999999999999 0  1 0.3999999999999999 0  1.2 0.3999999999999999 0  1.4 0.3999999999999999 0  1.6 0.3999999999999999 0  1.8 0.3999999999999999 0  2 0.3999999999999999 0  -2 0.6000000000000001 0  -1.8 0.6000000000000001 0  -1.6 0.6000000000000001 0  -1.4 0.6000000000000001 0  -1.2 0.6000000000000001 0  -1 0.6000000000000001 0  -0.8 0.6000000000000001 0  -0.6000000000000001 0.6000000000000001 0  -0.3999999999999999 0.6000000000000001 0  -0.2 0.6000000000000001 0  0 0.6000000000000001 0  0.2000000000000002 0.6000000000000001 0  0.3999999999999999 0.6000000000000001 0  0.6000000000000001 0.6000000000000001 0  0.7999999999999998 0.6000000000000001 0  1 0.6000000000000001 0  1.2 0.6000000000000001 0  1.4 0.6000000000000001 0  1.6 0.6000000000000001 0  1.8 0.6000000000000001 0  2 0.6000000000000001 0  -2 0.7999999999999998 0  -1.8 0.7999999999999998 0  -1.6 0.7999999999999998 0  -1.4 0.7999999999999998 0  -1.2 0.7999999999999998 0  -1 0.7999999999999998 0  -0.8 0.7999999999999998 0  -0.6000000000000001 0.7999999999999998 0  -0.3999999999999999 0.7999999999999998 0  -0.2 0.7999999999999998 0  0 0.7999999999999998 0  0.2000000000000002 0.7999999999999998 0  0.3999999999999999 0.7999999999999998 0  0.6000000000000001 0.7999999999999998 0  0.7999999999999998 0.7999999999999998 0  1 0.7999999999999998 0  1.2 0.7999999999999998 0  1.4 0.7999999999999998 0  1.6 0.7999999999999998 0  1.8 0.7999999999999998 0  2 0.7999999999999998 0  -2 1 0  -1.8 1 0  -1.6 1 0  -1.4 1 0  -1.2 1 0  -1 1 0  -0.8 1 0  -0.6000000000000001 1 0  -0.3999999999999999 1 0  -0.2 1 0  0 1 0  0.2000000000000002 1 0  0.3999999999999999 1 0  0.6000000000000001 1 0  0.7999999999999998 1 0  1 1 0  1.2 1 0  1.4 1 0  1.6 1 0  1.8 1 0  2 1 0  -2 1.2 0  -1.8 1.2 0  -1.6 1.2 0  -1.4 1.2 0  -1.2 1.2 0  -1 1.2 0  -0.8 1.2 0  -0.6000000000000001 1.2 0  -0.3999999999999999 1.2 0  -0.2 1.2 0  0 1.2 0  0.2000000000000002 1.2 0  0.3999999999999999 1.2 0  0.6000000000000001 1.2 0  0.7999999999999998 1.2 0  1 1.2 0  1.2 1.2 0  1.4 1.2 0  1.6 1.2 0  1.8 1.2 0  2 1.2 0  -2 1.4 0  -1.8 1.4 0  -1.6 1.4 0  -1.4 1.4 0  -1.2 1.4 0  -1 1.4 0  -0.8 1.4 0  -0.6000000000000001 1.4 0  -0.3999999999999999 1.4 0  -0.2 1.4 0  0 1.4 0  0.2000000000000002 1.4 0  0.3999999999999999 1.4 0  0.6000000000000001 1.4 0  0.7999999999999998 1.4 0  1 1.4 0  1.2 1.4 0  1.4 1.4 0  1.6 1.4 0  1.8 1.4 0  2 1.4 0  -2 1.6 0  -1.8 1.6 0  -1.6 1.6 0  -1.4 1.6 0  -1.2 1.6 0  -1 1.6 0  -0.8 1.6 0  -0.6000000000000001 1.6 0  -0.3999999999999999 1.6 0  -0.2 1.6 0  0 1.6 0  0.2000000000000002 1.6 0  0.3999999999999999 1.6 0  0.6000000000000001 1.6 0  0.7999999999999998 1.6 0  1 1.6 0  1.2 1.6 0  1.4 1.6 0  1.6 1.6 0  1.8 1.6 0  2 1.6 0  -2 1.8 0  -1.8 1.8 0  -1.6 1.8 0  -1.4 1.8 0  -1.2 1.8 0  -1 1.8 0  -0.8 1.8 0  -0.6000000000000001 1.8 0  -0.3999999999999999 1.8 0  -0.2 1.8 0  0 1.8 0  0.2000000000000002 1.8 0  0.3999999999999999 1.8 0  0.6000000000000001 1.8 0  0.7999999999999998 1.8 0  1 1.8 0  1.2 1.8 0  1.4 1.8 0  1.6 1.8 0  1.8 1.8 0  2 1.8 0  -2 2 0  -1.8 2 0  -1.6 2 0  -1.4 2 0  -1.2 2 0  -1 2 0  -0.8 2 0  -0.6000000000000001 2 0  -0.3999999999999999 2 0  -0.2 2 0  0 2 0  0.2000000000000002 2 0  0.3999999999999999 2 0  0.6000000000000001 2 0  0.7999999999999998 2 0  1 2 0  1.2 2 0  1.4 2 0  1.6 2 0  1.8 2 0  2 2 0  </DataArray>
</Points>
<Cells>
[...]
<PointData  Scalars="f_8"> 
<DataArray  type="Float64"  Name="f_8"  format="ascii">3.2603053337851312e-01  3.2583160788012944e-01  3.2533631506312777e-01  3.2455271411980180e-01  3.2349764967064826e-01  3.2219564341963647e-01  3.2067788636882655e-01  3.1898123389706251e-01  3.1714715871232613e-01  3.1522064774215713e-01  3.1324904763779893e-01  3.1128087492389361e-01  3.0936461390224762e-01  3.0754753000735630e-01  3.0587452963446726e-01  3.0438710057912721e-01  3.0312237138973591e-01  3.0211233498588497e-01  3.0138329487979360e-01  3.0095561651590652e-01  3.0084391087049045e-01  3.2593903681700354e-01  3.2578009698585880e-01  3.2531071264487660e-01  3.2454458314705320e-01  3.2350175981671919e-01  3.2220858339139036e-01  3.2069727128279807e-01  3.1900525248184786e-01  3.1717431494689075e-01  3.1524961321440292e-01  3.1327857532447539e-01  3.1130974381042648e-01  3.0939158311256593e-01  3.0757128395872391e-01  3.0589359310723341e-01  3.0439969363093367e-01  3.0312615578485258e-01  3.0210397017452623e-01  3.0135766125871066e-01  3.0090445630892354e-01  3.0075344580367463e-01  3.2591587818583195e-01  3.2575992333435622e-01  3.2529607893615187e-01  3.2453617690758169e-01  3.2349935158243126e-01  3.2221150575590224e-01  3.2070465469631337e-01  3.1901613793395101e-01  3.1718770600537571e-01  3.1526449931089312e-01  3.1329394213889195e-01  3.1132457841319405e-01  3.0940487768450242e-01  3.0758204075539408e-01  3.0590083435617815e-01  3.0440248368812334e-01  3.0312365070086622e-01  3.0209552515440180e-01  3.0134305573315784e-01  3.0088435143894526e-01  3.0073029243821725e-01  3.2590738908707034e-01  3.2575200633954537e-01  3.2528970045088740e-01  3.2453195787511202e-01  3.2349757748655550e-01  3.2221218343357255e-01  3.2070757626668783e-01  3.1902093784716973e-01  3.1719390818858234e-01  3.1527155557493647e-01  3.1330126425959831e-01  3.1133156643758148e-01  3.0941094686243248e-01  3.0758664940663372e-01  3.0590351504894786e-01  3.0440288024737705e-01  3.0312156346787672e-01  3.0209096582246653e-01  3.0133630930752126e-01  3.0087603285322706e-01  3.0072136176629966e-01  3.2590410755101418e-01  3.2574891144484891e-01  3.2528714924964119e-01  3.2453022749250648e-01  3.2349683917302829e-01  3.2221249603119029e-01  3.2070889278244086e-01  3.1902311985026038e-01  3.1719674439670237e-01  3.1527478241752599e-01  3.1330458721358018e-01  3.1133468156033106e-01  3.0941356228433825e-01  3.0758850665944726e-01  3.0590441002291058e-01  3.0440268327016617e-01  3.0312023741962862e-01  3.0208858025818408e-01  3.0133304720120413e-01  3.0087218494878548e-01  3.0071730233117039e-01  3.2590300030803748e-01  3.2574787443996750e-01  3.2528632047752049e-01  3.2452971959949012e-01  3.2349672706515081e-01  3.2221281003242885e-01  3.2070961714939028e-01  3.1902419584235503e-01  3.1719807690097868e-01  3.1527624914694524e-01  3.1330604960608766e-01  3.1133599662351480e-01  3.0941459471665606e-01  3.0758914061494880e-01  3.0590455986664628e-01  3.0440230259998263e-01  3.0311932552267312e-01  3.0208718506342602e-01  3.0133126375332842e-01  3.0087014858549482e-01  3.0071517627386057e-01  3.2590284952342452e-01  3.2574774907467374e-01  3.2528627075835870e-01  3.2452978632232732e-01  3.2349693643808153e-01  3.2221317032665941e-01  3.2071011740372046e-01  3.1902480660140797e-01  3.1719875277524501e-01  3.1527693286007652e-01  3.1330667712536481e-01  3.1133650293514126e-01  3.0941491979400737e-01  3.0758923512594705e-01  3.0590439017247867e-01  3.0440185461362207e-01  3.0311860702992921e-01  3.0208622617480163e-01  3.0133011526899878e-01  3.0086887823531622e-01  3.0071386304716435e-01  3.2590312249486053e-01  3.2574802880371984e-01  3.2528657045603637e-01  3.2453011558286493e-01  3.2349729920672959e-01  3.2221356353992670e-01  3.2071053044720271e-01  3.1902522163270625e-01  3.1719914586925541e-01  3.1527727585881832e-01  3.1330694001738141e-01  3.1133665655035075e-01  3.0941493857748165e-01  3.0758909974718929e-01  3.0590408973471772e-01  3.0440138825068919e-01  3.0311798471741769e-01  3.0208546863858399e-01  3.0132925294807256e-01  3.0086794934524791e-01  3.0071291088868685e-01  3.2590358008384090e-01  3.2574848523396094e-01  3.2528702318761532e-01  3.2453056080570930e-01  3.2349773114186087e-01  3.2221397400798496e-01  3.2071090876992780e-01  3.1902555489508122e-01  3.1719941953090064e-01  3.1527747466700717e-01  3.1330704914369129e-01  3.1133666285040690e-01  3.0941483185961599e-01  3.0758887393167111e-01  3.0590374379065671e-01  3.0440092681257447e-01  3.0311741830698347e-01  3.0208481344921573e-01  3.0132853018649663e-01  3.0086718416603819e-01  3.0071213099736693e-01  3.2590411909002903e-01  3.2574901973819337e-01  3.2528754406023980e-01  3.2453105861404813e-01  3.2349819601196628e-01  3.2221439559682108e-01  3.2071127637524671e-01  3.1902585771395658e-01  3.1719964706030473e-01  3.1527761722282743e-01  3.1330709845982568e-01  3.1133661270838153e-01  3.0941467869247696e-01  3.0758861734428283e-01  3.0590338694216923e-01  3.0440047661551090e-01  3.0311688541057913e-01  3.0208421199136976e-01  3.0132787731767618e-01  3.0086649936807058e-01  3.0071143523841265e-01  3.2590470199904303e-01  3.2574959677691245e-01  3.2528810349501069e-01  3.2453158876535815e-01  3.2349868532645065e-01  3.2221483277452556e-01  3.2071165056442708e-01  3.1902615877669210e-01  3.1719986590239446e-01  3.1527774617187787e-01  3.1330713166712720e-01  3.1133654654396020e-01  3.0941451209925469e-01  3.0758835211697155e-01  3.0590302789948481e-01  3.0440003164035334e-01  3.0311636534153968e-01  3.0208363035960584e-01  3.0132724993493654e-01  3.0086584378342190e-01  3.0071077009192132e-01  3.2590532039026426e-01  3.2575020894372708e-01  3.2528869710156799e-01  3.2453215154172771e-01  3.2349920515610192e-01  3.2221529783821667e-01  3.2071204955185623e-01  3.1902648116811888e-01  3.1720010231260876e-01  3.1527788873942042e-01  3.1330717446353312e-01  3.1133648597184183e-01  3.0941434724488620e-01  3.0758808502305651e-01  3.0590266372707148e-01  3.0439957869521833e-01  3.0311583494932304e-01  3.0208303658482760e-01  3.0132660915084075e-01  3.0086517411132518e-01  3.0071009073929100e-01  3.2590596939100713e-01  3.2575085242130469e-01  3.2528932406321637e-01  3.2453275071488230e-01  3.2349976489960569e-01  3.2221580616880729e-01  3.2071249430984011e-01  3.1902685032939476e-01  3.1720038443660625e-01  3.1527807352588544e-01  3.1330725337699439e-01  3.1133645288226597e-01  3.0941419902734751e-01  3.0758782205869517e-01  3.0590229025231186e-01  3.0439910295590200e-01  3.0311526913044334e-01  3.0208239650391466e-01  3.0132591372235207e-01  3.0086444460893857e-01  3.0070934990087311e-01  3.2590662101069845e-01  3.2575150135207981e-01  3.2528996448685427e-01  3.2453337553343747e-01  3.2350036513093805e-01  3.2221637062258607e-01  3.2071300960161453e-01  3.1902730125173218e-01  3.1720075466757625e-01  3.1527834662008242e-01  3.1330741395552186e-01  3.1133648791738344e-01  3.0941409910578549e-01  3.0758758250545354e-01  3.0590191200417149e-01  3.0439859309067058e-01  3.0311464098349955e-01  3.0208166933670827e-01  3.0132511194615685e-01  3.0086359660832479e-01  3.0070848654097182e-01  3.2590718430871618e-01  3.2575206976893689e-01  3.2529054633063620e-01  3.2453397534919082e-01  3.2350098183544523e-01  3.2221699634158418e-01  3.2071362933506958e-01  3.1902789339609511e-01  3.1720129233671807e-01  3.1527879963520172e-01  3.1330775132081018e-01  3.1133668056225605e-01  3.0941412265479129e-01  3.0758741983248894e-01  3.0590155533798069e-01  3.0439804546436317e-01  3.0311391686312472e-01  3.0208079432393636e-01  3.0132412152776417e-01  3.0086253401753449e-01  3.0070739989507939e-01  3.2590743007913503e-01  3.2575234014696364e-01  3.2529088479024643e-01  3.2453441542809941e-01  3.2350154230126127e-01  3.2221767821740183e-01  3.2071441497997633e-01  3.1902874758451566e-01  3.1720216510281007e-01  3.1527963053693225e-01  3.1330847471572765e-01  3.1133723145600478e-01  3.0941444267072926e-01  3.0758746284837873e-01  3.0590129234133534e-01  3.0439746819505337e-01  3.0311303984939514e-01  3.0207965499042411e-01  3.0132277817930492e-01  3.0086106169677396e-01  3.0070588437937873e-01  3.2590682672087717e-01  3.2575180916861496e-01  3.2529055519611444e-01  3.2453438957212610e-01  3.2350188427782683e-01  3.2221840779689970e-01  3.2071550677954203e-01  3.1903013463689417e-01  3.1720374583131705e-01  3.1528127818292734e-01  3.1331004837517917e-01  3.1133858799267766e-01  3.0941544884884364e-01  3.0758800705122324e-01  3.0590129521016757e-01  3.0439689144007914e-01  3.0311189237012165e-01  3.0207799533725666e-01  3.0132071237048230e-01  3.0085873560670467e-01  3.0070347052308954e-01  3.2590414160692166e-01  3.2574932065271178e-01  3.2528860719321107e-01  3.2453324346334633e-01  3.2350169536413115e-01  3.2221922033563893e-01  3.2071726137353113e-01  3.1903268293678749e-01  3.1720686914486279e-01  3.1528470794564689e-01  3.1331348738413073e-01  3.1134173188797964e-01  3.0941800763183092e-01  3.0758972651547911e-01  3.0590197805175234e-01  3.0439641747915613e-01  3.0311023668971310e-01  3.0207524213924269e-01  3.0131706092674976e-01  3.0085449303516298e-01  3.0069902509312652e-01  3.2589630798160962e-01  3.2574208832309648e-01  3.2528291290305877e-01  3.2452967917628750e-01  3.2350052407878560e-01  3.2222043334055228e-01  3.2072064081592300e-01  3.1903785720296668e-01  3.1721335858027999e-01  3.1529196222643191e-01  3.1332091695310321e-01  3.1134873596840845e-01  3.0942400119368868e-01  3.0759416850672500e-01  3.0590440330173785e-01  3.0439647483503451e-01  3.0310773581354933e-01  3.0207021014489055e-01  3.0130980584832179e-01  3.0084566013682129e-01  3.0068960631211034e-01  3.2587384627698757e-01  3.2572267226956714e-01  3.2526898065481913e-01  3.2452187728868015e-01  3.2349861701054211e-01  3.2222376194447405e-01  3.2072834808832479e-01  3.1904899623963479e-01  3.1722694251591543e-01  3.1530698666649432e-01  3.1333637005693854e-01  3.1136360351166853e-01  3.0943727029898560e-01  3.0760483271202682e-01  3.0591147279368680e-01  3.0439899952012101e-01  3.0310485710347612e-01  3.0206127338767430e-01  3.0129459594670061e-01  3.0082488060854323e-01  3.0066583015819398e-01  3.2578351876534112e-01  3.2567169774471616e-01  3.2524355838060975e-01  3.2451373359091990e-01  3.2350262027651050e-01  3.2223656206948198e-01  3.2074759900742877e-01  3.1907291157214035e-01  3.1725404187051953e-01  3.1533595053138364e-01  3.1336595487732444e-01  3.1139258684117915e-01  3.0946440488661459e-01  3.0762879101957796e-01  3.0593076059616847e-01  3.0441180798590545e-01  3.0310880401995616e-01  3.0205294975254343e-01  3.0126877241554378e-01  3.0077311835996468e-01  3.0057404503901242e-01  </DataArray> 
</PointData> 
</Piece>
</UnstructuredGrid>
</VTKFile>