<?xml version="1.0"?>
<VTKFile type="UnstructuredGrid"  version="0.1"  >
<UnstructuredGrid>
<Piece  NumberOfPoints="441" NumberOfCells="800">
<Points>
<DataArray  type="Float64"  NumberOfComponents="3"  format="ascii">-2 -2 0  -1.8 -2 0  -1.6 -2 0  -1.4 -2 0  -1.2 -2 0  -1 -2 0  -0.8 -2 0  -0.6000000000000001 -2 0  -0.3999999999999999 -2 0  -0.2 -2 0  0 -2 0  0.2000000000000002 -2 0  0.3999999999999999 -2 0  0.6000000000000001 -2 0  0.7999999999999998 -2 0  1 -2 0  1.2 -2 0  1.4 -2 0  1.6 -2 0  1.8 -2 0  2 -2 0  -2 -1.8 0  -1.8 -1.8 0  -1.6 -1.8 0  -1.4 -1.8 0  -1.2 -1.8 0  -1 -1.8 0  -0.8 -1.8 0  -0.6000000000000001 -1.8 0  -0.3999999999999999 -1.8 0  -0.2 -1.8 0  0 -1.8 0  0.2000000000000002 -1.8 0  0.3999999999999999 -1.8 0  0.6000000000000001 -1.8 0  0.7999999999999998 -1.8 0  1 -1.8 0  1.2 -1.8 0  1.4 -1.8 0  1.6 -1.8 0  1.8 -1.8 0  2 -1.8 0  -2 -1.6 0  -1.8 -1.6 0  -1.6 -1.6 0  -1.4 -1.6 0  -1.2 -1.6 0  -1 -1.6 0  -0.8 -1.6 0  -0.6000000000000001 -1.6 0  -0.3999999999999999 -1.6 0  -0.2 -1.6 0  0 -1.6 0  0.2000000000000002 -1.6 0  0.3999999999999999 -1.6 0  0.6000000000000001 -1.6 0  0.7999999999999998 -1.6 0  1 -1.6 0  1.2 -1.6 0  1.4 -1.6 0  1.6 -1.6 0  1.8 -1.6 0  2 -1.6 0  -2 -1.4 0  -1.8 -1.4 0  -1.6 -1.4 0  -1.4 -1.4 0  -1.2 -1.4 0  -1 -1.4 0  -0.8 -1.4 0  -0.6000000000000001 -1.4 0  -0.3999999999999999 -1.4 0  -0.2 -1.4 0  0 -1.4 0  0.2000000000000002 -1.4 0  0.3999999999999999 -1.4 0  0.6000000000000001 -1.4 0  0.7999999999999998 -1.4 0  1 -1.4 0  1.2 -1.4 0  1.4 -1.4 0  1.6 -1.4 0  1.8 -1.4 0  2 -1.4 0  -2 -1.2 0  -1.8 -1.2 0  -1.6 -1.2 0  -1.4 -1.2 0  -1.2 -1.2 0  -1 -1.2 0  -0.8 -1.2 0  -0.6000000000000001 -1.2 0  -0.3999999999999999 -1.2 0  -0.2 -1.2 0  0 -1.2 0  0.2000000000000002 -1.2 0  0.3999999999999999 -1.2 0  0.6000000000000001 -1.2 0  0.7999999999999998 -1.2 0  1 -1.2 0  1.2 -1.2 0  1.4 -1.2 0  1.6 -1.2 0  1.8 -1.2 0  2 -1.2 0  -2 -1 0  -1.8 -1 0  -1.6 -1 0  -1.4 -1 0  -1.2 -1 0  -1 -1 0  -0.8 -1 0  -0.6000000000000001 -1 0  -0.3999999999999999 -1 0  -0.2 -1 0  0 -1 0  0.2000000000000002 -1 0  0.3999999999999999 -1 0  0.6000000000000001 -1 0  0.7999999999999998 -1 0  1 -1 0  1.2 -1 0  1.4 -1 0  1.6 -1 0  1.8 -1 0  2 -1 0  -2 -0.8 0  -1.8 -0.8 0  -1.6 -0.8 0  -1.4 -0.8 0  -1.2 -0.8 0  -1 -0.8 0  -0.8 -0.8 0  -0.6000000000000001 -0.8 0  -0.3999999999999999 -0.8 0  -0.2 -0.8 0  0 -0.8 0  0.2000000000000002 -0.8 0  0.3999999999999999 -0.8 0  0.6000000000000001 -0.8 0  0.7999999999999998 -0.8 0  1 -0.8 0  1.2 -0.8 0  1.4 -0.8 0  1.6 -0.8 0  1.8 -0.8 0  2 -0.8 0  -2 -0.6000000000000001 0  -1.8 -0.6000000000000001 0  -1.6 -0.6000000000000001 0  -1.4 -0.6000000000000001 0  -1.2 -0.6000000000000001 0  -1 -0.6000000000000001 0  -0.8 -0.6000000000000001 0  -0.6000000000000001 -0.6000000000000001 0  -0.3999999999999999 -0.6000000000000001 0  -0.2 -0.6000000000000001 0  0 -0.6000000000000001 0  0.2000000000000002 -0.6000000000000001 0  0.3999999999999999 -0.6000000000000001 0  0.6000000000000001 -0.6000000000000001 0  0.7999999999999998 -0.6000000000000001 0  1 -0.6000000000000001 0  1.2 -0.6000000000000001 0  1.4 -0.6000000000000001 0  1.6 -0.6000000000000001 0  1.8 -0.6000000000000001 0  2 -0.6000000000000001 0  -2 -0.3999999999999999 0  -1.8 -0.3999999999999999 0  -1.6 -0.3999999999999999 0  -1.4 -0.3999999999999999 0  -1.2 -0.3999999999999999 0  -1 -0.3999999999999999 0  -0.8 -0.3999999999999999 0  -0.6000000000000001 -0.3999999999999999 0  -0.3999999999999999 -0.3999999999999999 0  -0.2 -0.3999999999999999 0  0 -0.3999999999999999 0  0.2000000000000002 -0.3999999999999999 0  0.3999999999999999 -0.3999999999999999 0  0.6000000000000001 -0.3999999999999999 0  0.7999999999999998 -0.3999999999999999 0  1 -0.3999999999999999 0  1.2 -0.3999999999999999 0  1.4 -0.3999999999999999 0  1.6 -0.3999999999999999 0  1.8 -0.3999999999999999 0  2 -0.3999999999999999 0  -2 -0.2 0  -1.8 -0.2 0  -1.6 -0.2 0  -1.4 -0.2 0  -1.2 -0.2 0  -1 -0.2 0  -0.8 -0.2 0  -0.6000000000000001 -0.2 0  -0.3999999999999999 -0.2 0  -0.2 -0.2 0  0 -0.2 0  0.2000000000000002 -0.2 0  0.3999999999999999 -0.2 0  0.6000000000000001 -0.2 0  0.7999999999999998 -0.2 0  1 -0.2 0  1.2 -0.2 0  1.4 -0.2 0  1.6 -0.2 0  1.8 -0.2 0  2 -0.2 0  -2 0 0  -1.8 0 0  -1.6 0 0  -1.4 0 0  -1.2 0 0  -1 0 0  -0.8 0 0  -0.6000000000000001 0 0  -0.3999999999999999 0 0  -0.2 0 0  0 0 0  0.2000000000000002 0 0  0.3999999999999999 0 0  0.6000000000000001 0 0  0.7999999999999998 0 0  1 0 0  1.2 0 0  1.4 0 0  1.6 0 0  1.8 0 0  2 0 0  -2 0.2000000000000002 0  -1.8 0.2000000000000002 0  -1.6 0.2000000000000002 0  -1.4 0.2000000000000002 0  -1.2 0.2000000000000002 0  -1 0.2000000000000002 0  -0.8 0.2000000000000002 0  -0.6000000000000001 0.2000000000000002 0  -0.3999999999999999 0.2000000000000002 0  -0.2 0.2000000000000002 0  0 0.2000000000000002 0  0.2000000000000002 0.2000000000000002 0  0.3999999999999999 0.2000000000000002 0  0.6000000000000001 0.2000000000000002 0  0.7999999999999998 0.2000000000000002 0  1 0.2000000000000002 0  1.2 0.2000000000000002 0  1.4 0.2000000000000002 0  1.6 0.2000000000000002 0  1.8 0.2000000000000002 0  2 0.2000000000000002 0  -2 0.3999999999999999 0  -1.8 0.3999999999999999 0  -1.6 0.3999999999999999 0  -1.4 0.3999999999999999 0  -1.2 0.3999999999999999 0  -1 0.3999999999999999 0  -0.8 0.3999999999999999 0  -0.6000000000000001 0.3999999999999999 0  -0.3999999999999999 0.3999999999999999 0  -0.2 0.3999999999999999 0  0 0.3999999999999999 0  0.2000000000000002 0.3999999999999999 0  0.3999999999999999 0.3999999999999999 0  0.6000000000000001 0.3999999999999999 0  0.7999999999999998 0.3999999999999999 0  1 0.3999999999999999 0  1.2 0.3999999999999999 0  1.4 0.3999999999999999 0  1.6 0.3999999999999999 0  1.8 0.3999999999999999 0  2 0.3999999999999999 0  -2 0.6000000000000001 0  -1.8 0.6000000000000001 0  -1.6 0.6000000000000001 0  -1.4 0.6000000000000001 0  -1.2 0.6000000000000001 0  -1 0.6000000000000001 0  -0.8 0.6000000000000001 0  -0.6000000000000001 0.6000000000000001 0  -0.3999999999999999 0.6000000000000001 0  -0.2 0.6000000000000001 0  0 0.6000000000000001 0  0.2000000000000002 0.6000000000000001 0  0.3999999999999999 0.6000000000000001 0  0.6000000000000001 0.6000000000000001 0  0.7999999999999998 0.6000000000000001 0  1 0.6000000000000001 0  1.2 0.6000000000000001 0  1.4 0.6000000000000001 0  1.6 0.6000000000000001 0  1.8 0.6000000000000001 0  2 0.6000000000000001 0  -2 0.7999999999999998 0  -1.8 0.7999999999999998 0  -1.6 0.7999999999999998 0  -1.4 0.7999999999999998 0  -1.2 0.7999999999999998 0  -1 0.7999999999999998 0  -0.8 0.7999999999999998 0  -0.6000000000000001 0.7999999999999998 0  -0.3999999999999999 0.7999999999999998 0  -0.2 0.7999999999999998 0  0 0.7999999999999998 0  0.2000000000000002 0.7999999999999998 0  0.3999999999999999 0.7999999999999998 0  0.6000000000000001 0.7999999999999998 0  0.7999999999999998 0.7999999999999998 0  1 0.7999999999999998 0  1.2 0.7999999999999998 0  1.4 0.7999999999999998 0  1.6 0.7999999999999998 0  1.8 0.7999999999999998 0  2 0.7999999999999998 0  -2 1 0  -1.8 1 0  -1.6 1 0  -1.4 1 0  -1.2 1 0  -1 1 0  -0.8 1 0  -0.6000000000000001 1 0  -0.3999999999999999 1 0  -0.2 1 0  0 1 0  0.2000000000000002 1 0  0.3999999999999999 1 0  0.6000000000000001 1 0  0.7999999999999998 1 0  1 1 0  1.2 1 0  1.4 1 0  1.6 1 0  1.8 1 0  2 1 0  -2 1.2 0  -1.8 1.2 0  -1.6 1.2 0  -1.4 1.2 0  -1.2 1.2 0  -1 1.2 0  -0.8 1.2 0  -0.6000000000000001 1.2 0  -0.3999999999999999 1.2 0  -0.2 1.2 0  0 1.2 0  0.2000000000000002 1.2 0  0.3999999999999999 1.2 0  0.6000000000000001 1.2 0  0.7999999999999998 1.2 0  1 1.2 0  1.2 1.2 0  1.4 1.2 0  1.6 1.2 0  1.8 1.2 0  2 1.2 0  -2 1.4 0  -1.8 1.4 0  -1.6 1.4 0  -1.4 1.4 0  -1.2 1.4 0  -1 1.4 0  -0.8 1.4 0  -0.6000000000000001 1.4 0  -0.3999999999999999 1.4 0  -0.2 1.4 0  0 1.4 0  0.2000000000000002 1.4 0  0.3999999999999999 1.4 0  0.6000000000000001 1.4 0  0.7999999999999998 1.4 0  1 1.4 0  1.2 1.4 0  1.4 1.4 0  1.6 1.4 0  1.8 1.4 0  2 1.4 0  -2 1.6 0  -1.8 1.6 0  -1.6 1.6 0  -1.4 1.6 0  -1.2 1.6 0  -1 1.6 0  -0.8 1.6 0  -0.6000000000000001 1.6 0  -0.3999999999999999 1.6 0  -0.2 1.6 0  0 1.6 0  0.2000000000000002 1.6 0  0.3999999999999999 1.6 0  0.6000000000000001 1.6 0  0.7999999999999998 1.6 0  1 1.6 0  1.2 1.6 0  1.4 1.6 0  1.6 1.6 0  1.8 1.6 0  2 1.6 0  -2 1.8 0  -1.8 1.8 0  -1.6 1.8 0  -1.4 1.8 0  -1.2 1.8 0  -1 1.8 0  -0.8 1.8 0  -0.6000000000000001 1.8 0  -0.3999999999999999 1.8 0  -0.2 1.8 0  0 1.8 0  0.2000000000000002 1.8 0  0.3999999999999999 1.8 0  0.6000000000000001 1.8 0  0.7999999999999998 1.8 0  1 1.8 0  1.2 1.8 0  1.4 1.8 0  1.6 1.8 0  1.8 1.8 0  2 1.8 0  -2 2 0  -1.8 2 0  -1.6 2 0  -1.4 2 0  -1.2 2 0  -1 2 0  -0.8 2 0  -0.6000000000000001 2 0  -0.3999999999999999 2 0  -0.2 2 0  0 2 0  0.2000000000000002 2 0  0.3999999999999999 2 0  0.6000000000000001 2 0  0.7999999999999998 2 0  1 2 0  1.2 2 0  1.4 2 0  1.6 2 0  1.8 2 0  2 2 0  </DataArray>
</Points>
<Cells>
[...]
<PointData  Scalars="f_8"> 
<DataArray  type="Float64"  Name="f_8"  format="ascii">6.8043772617380968e-02  6.7268611340660561e-02  6.5360580076195413e-02  6.2406571297658975e-02  5.8550241349367579e-02  5.3976894638912080e-02  4.8896753596935724e-02  4.3527999836341404e-02  3.8081090433376451e-02  3.2745676669357952e-02  2.7681073915407226e-02  2.3010750310584985e-02  1.8820813286001409e-02  1.5162054258083762e-02  1.2054813925073007e-02  9.4957747000004120e-03  7.4657669920118845e-03  5.9377671308174064e-03  4.8844331442193236e-03  4.2847402976790164e-03  4.1295263253066919e-03  6.7727982332023526e-02  6.7112194460612257e-02  6.5311529625155074e-02  6.2430087468020902e-02  5.8621062102332672e-02  5.4075409156955009e-02  4.9007227347260963e-02  4.3637901394002636e-02  3.8180905782203220e-02  3.2828846375857257e-02  2.7743854330219163e-02  2.3051912071672963e-02  1.8841162880995150e-02  1.5163803804909922e-02  1.2040834279868531e-02  9.4687497265985836e-03  7.4272224255898392e-03  5.8868712506015839e-03  4.8163441696973839e-03  4.1880752563903754e-03  3.9821853773999386e-03  6.7684269017842941e-02  6.7080242052765721e-02  6.5301338106010895e-02  6.2442831439783249e-02  5.8653128390066409e-02  5.4120834557996267e-02  4.9059273761442569e-02  4.3690117605955765e-02  3.8227829664224867e-02  3.2866413809714640e-02  2.7769552154385042e-02  2.3064711800256175e-02  1.8841281554510661e-02  1.5152347819439419e-02  1.2019387047010055e-02  9.4389649496727668e-03  7.3904861221368405e-03  5.8441059561636149e-03  4.7680618765312986e-03  4.1348642861232790e-03  3.9259798487899103e-03  6.7690768682061447e-02  6.7088429802742669e-02  6.5313767107907275e-02  6.2460451751348754e-02  5.8675347272671777e-02  5.4145917488868163e-02  4.9084855968455444e-02  4.3713699479640204e-02  3.8247183915192225e-02  3.2879866312652627e-02  2.7776123997640116e-02  2.3064130793554238e-02  1.8833887440313002e-02  1.5138925913044367e-02  1.2000969692250724e-02  9.4166396081298218e-03  7.3652443469002810e-03  5.8167600515912320e-03  4.7392454503700819e-03  4.1051155376196965e-03  3.8958719586388597e-03  6.7704545056260473e-02  6.7102423720543300e-02  6.5328218976682673e-02  6.2475307452784658e-02  5.8690203196623991e-02  5.4160078168486045e-02  4.9097463903714084e-02  4.3723892408733908e-02  3.8254240919820229e-02  3.2883315242196509e-02  2.7775795607895320e-02  2.3060157446228691e-02  1.8826654474539663e-02  1.5128990756966963e-02  1.1988967002755613e-02  9.4031904404080283e-03  7.3508842612774331e-03  5.8018960406542299e-03  4.7241453979952790e-03  4.0899271948986547e-03  3.8806618634784004e-03  6.7714394615174395e-02  6.7112220481762991e-02  6.5337767424638635e-02  6.2484366285029659e-02  5.8698480291477735e-02  5.4167249920999833e-02  4.9103213084436062e-02  4.3727953739254512e-02  3.8256442573156607e-02  3.2883606608674981e-02  2.7774255699165713e-02  2.3056982968922810e-02  1.8822130789091757e-02  1.5123451875948149e-02  1.1982752116995184e-02  9.3966042263756225e-03  7.3441667557182675e-03  5.7952056624056454e-03  4.7175562650384993e-03  4.0834396659751009e-03  3.8742235701325965e-03  6.7719355865463918e-02  6.7117115182374537e-02  6.5342433310479189e-02  6.2488641828440536e-02  5.8702210966477583e-02  5.4170298310286559e-02  4.9105471420260338e-02  4.3729356200001027e-02  3.8256974309810454e-02  3.2883307047903335e-02  2.7773214897143232e-02  2.3055331274710000e-02  1.8820023418028232e-02  1.5121050891111392e-02  1.1980208625972769e-02  9.3940433409787916e-03  7.3416771813993933e-03  5.7928348957984486e-03  4.7153114958620084e-03  4.0812937649397970e-03  3.8721250790739060e-03  6.7721261033639416e-02  6.7118982272358282e-02  6.5344186932690465e-02  6.2490211597608702e-02  5.8703535878564708e-02  5.4171331157078756e-02  4.9106182724116786e-02  4.3729736976958464e-02  3.8257036999341715e-02  3.2883084191442404e-02  2.7772755539099005e-02  2.3054695488252352e-02  1.8819275707511247e-02  1.5120253408246222e-02  1.1979415124558666e-02  9.3932946072694395e-03  7.3409983781383484e-03  5.7922349301583543e-03  4.7147842405621367e-03  4.0808207766140480e-03  3.8716793813956579e-03  6.7721812393834332e-02  6.7119517334775433e-02  6.5344680883113140e-02  6.2490642325851067e-02  5.8703885688621935e-02  5.4171588194145054e-02  4.9106341942614644e-02  4.3729800488987301e-02  3.8257013702546749e-02  3.2882988674390989e-02  2.7772606379872201e-02  2.3054513168184802e-02  1.8819080428288934e-02  1.5120063109214155e-02  1.1979243946680341e-02  9.3931519553868536e-03  7.3408886195692408e-03  5.7921576636008063e-03  4.7147349977118358e-03  4.0807919915062333e-03  3.8716614775287810e-03  6.7721922726197703e-02  6.7119622116280545e-02  6.5344774375359238e-02  6.2490719751052561e-02  5.8703943674856034e-02  5.4171625086071699e-02  4.9106357933479408e-02  4.3729797548518384e-02  3.8256995302309998e-02  3.2882959343357679e-02  2.7772571151838534e-02  2.3054477001974830e-02  1.8819047685778790e-02  1.5120037163250027e-02  1.1979226963573359e-02  9.3931448613799838e-03  7.3408912260078127e-03  5.7921688995945381e-03  4.7147531873394377e-03  4.0808151166627539e-03  3.8716873848786289e-03  6.7721931317295342e-02  6.7119629360674532e-02  6.5344779551021095e-02  6.2490722365003221e-02  5.8703943535080259e-02  5.4171622334352777e-02  4.9106353031966123e-02  4.3729791220014302e-02  3.8256988432261496e-02  3.2882952858785716e-02  2.7772565897314895e-02  2.3054473633807214e-02  1.8819046602261063e-02  1.5120038481654104e-02  1.1979230545039169e-02  9.3931503751800791e-03  7.3408982370601669e-03  5.7921769592629256e-03  4.7147619082213953e-03  4.0808242168557810e-03  3.8716966948563985e-03  6.7721923965355008e-02  6.7119622261387013e-02  6.5344772475544835e-02  6.2490715119820912e-02  5.8703936016962978e-02  5.4171614562163538e-02  4.9106345150807931e-02  4.3729783478768380e-02  3.8256981140720694e-02  3.2882946334306919e-02  2.7772560412379639e-02  2.3054469374779507e-02  1.8819043646282431e-02  1.5120036793910030e-02  1.1979229993796910e-02  9.3931507582614201e-03  7.3408993116584470e-03  5.7921784675573004e-03  4.7147635937702832e-03  4.0808258304454456e-03  3.8716979922580122e-03  6.7721945563674071e-02  6.7119644234043097e-02  6.5344791274718456e-02  6.2490727619441216e-02  5.8703939852760310e-02  5.4171608360605569e-02  4.9106328624317359e-02  4.3729757383008008e-02  3.8256947108924334e-02  3.2882906620261228e-02  2.7772517584375003e-02  2.3054426005496433e-02  1.8819002038010298e-02  1.5119998766653268e-02  1.1979196749140572e-02  9.3931228181874070e-03  7.3408765219435254e-03  5.7921600514960030e-03  4.7147482434271529e-03  4.0808118275173239e-03  3.8716833560841794e-03  6.7722215488097065e-02  6.7119908417362012e-02  6.5345030122505338e-02  6.2490923998834796e-02  5.8704080483284314e-02  5.4171684815290166e-02  4.9106337839740104e-02  4.3729701620659686e-02  3.8256833374209293e-02  3.2882745617719984e-02  2.7772322351323753e-02  2.3054210405613732e-02  1.8818779302858291e-02  1.5119780247522826e-02  1.1978990993143337e-02  9.3929350250255370e-03  7.3407083850466721e-03  5.7920099488698524e-03  4.7146117229295475e-03  4.0806823254844098e-03  3.8715530902750932e-03  6.7723525251159794e-02  6.7121185417596624e-02  6.5346205438488930e-02  6.2491936214715695e-02  5.8704879646364123e-02  5.4172235801636756e-02  4.9106622714461097e-02  4.3729720567789669e-02  3.8256603913284358e-02  3.2882300080059809e-02  2.7771703881228148e-02  2.3053467997879915e-02  1.8817962528517453e-02  1.5118934331621177e-02  1.1978152805819485e-02  9.3921303699052421e-03  7.3399507660680497e-03  5.7913008103182093e-03  4.7139420129928764e-03  4.0800351370502549e-03  3.8709070755295191e-03  6.7727727508117133e-02  6.7125291524317704e-02  6.5350047926024099e-02  6.2495357917342662e-02  5.8707740964927077e-02  5.4174423954484387e-02  4.9108061299421357e-02  4.3730377129807964e-02  3.8256493416965208e-02  3.2881483030159114e-02  2.7770278982457031e-02  2.3051560352332655e-02  1.8815709170996269e-02  1.5116469266330548e-02  1.1975593630872295e-02  9.3895681570506945e-03  7.3374442489413921e-03  5.7888752700027612e-03  4.7115926418541025e-03  4.0777341690259230e-03  3.8686136152191629e-03  6.7737453104365908e-02  6.7134862321312702e-02  6.5359219883950256e-02  6.2503858872952678e-02  5.8715274050379199e-02  5.4180691096113558e-02  4.9112798930480490e-02  4.3733393504843690e-02  3.8257697702621822e-02  3.2880899437132863e-02  2.7768043295074728e-02  2.3047900181005932e-02  1.8810912298159042e-02  1.5110846166881145e-02  1.1969440581717698e-02  9.3831365439105002e-03  7.3309201146802361e-03  5.7823712211514822e-03  4.7051522488251599e-03  4.0713471657233486e-03  3.8622386916896691e-03  6.7753134329388828e-02  6.7150604679912393e-02  6.5375123725091439e-02  6.2519741447033622e-02  5.8730648994768063e-02  5.4194847112994472e-02  4.9124933447378547e-02  4.3742758353964274e-02  3.8263723035055777e-02  3.2883274443689769e-02  2.7766745017396798e-02  2.3043172834504543e-02  1.8803207817826663e-02  1.5100741523627758e-02  1.1957548852883493e-02  9.3700273276849395e-03  7.3170614869262542e-03  5.7681008318793943e-03  4.6906798272867674e-03  4.0567847461357902e-03  3.8476482991992166e-03  6.7764439584624803e-02  6.7163584319150246e-02  6.5392012254665927e-02  6.2541168126153096e-02  5.8755793134268715e-02  5.4221873855066167e-02  4.9151504688993493e-02  4.3766506186596457e-02  3.8282623204584032e-02  3.2895889528413741e-02  2.7772331240213749e-02  2.3041663506436324e-02  1.8795100344562297e-02  1.5086923182823887e-02  1.1939099264620542e-02  9.3480336648030515e-03  7.2924775224225873e-03  5.7416741865610552e-03  4.6629631180975170e-03  4.0282322880653256e-03  3.8187705914023685e-03  6.7726929661071605e-02  6.7138434003982880e-02  6.5388275192954981e-02  6.2559552671651447e-02  5.8792484033246231e-02  5.4270856955846519e-02  4.9206082205503231e-02  4.3820325304836018e-02  3.8330357985795621e-02  3.2933635519553750e-02  2.7797746993035340e-02  2.3053894651591963e-02  1.8794532407144647e-02  1.5074819011590218e-02  1.1917181619298178e-02  9.3180737075063726e-03  7.2559502942868394e-03  5.6995512742788407e-03  4.6157445485872275e-03  3.9763969373222139e-03  3.7639862209245794e-03  6.7414971985021638e-02  6.6983644514890139e-02  6.5340021456202768e-02  6.2583918641979736e-02  5.8864708661862872e-02  5.4371515526837465e-02  4.9319374171494547e-02  4.3933472414059052e-02  3.8433498199668473e-02  3.3019840205024652e-02  2.7862952151376581e-02  2.3096650618328596e-02  1.8815553027946717e-02  1.5076355674593100e-02  1.1902261848485945e-02  9.2896294735232664e-03  7.2158174208515301e-03  5.6472437543962873e-03  4.5467825413883457e-03  3.8797636785729336e-03  3.6179449828812973e-03  </DataArray> 
</PointData> 
</Piece>
</UnstructuredGrid>
</VTKFile>