<?xml version="1.0"?>
<VTKFile type="UnstructuredGrid"  version="0.1"  >
<UnstructuredGrid>
<Piece  NumberOfPoints="441" NumberOfCells="800">
<Points>
<DataArray  type="Float64"  NumberOfComponents="3"  format="ascii">-2 -2 0  -1.8 -2 0  -1.6 -2 0  -1.4 -2 0  -1.2 -2 0  -1 -2 0  -0.8 -2 0  -0.6000000000000001 -2 0  -0.3999999999999999 -2 0  -0.2 -2 0  0 -2 0  0.2000000000000002 -2 0  0.3999999999999999 -2 0  0.6000000000000001 -2 0  0.7999999999999998 -2 0  1 -2 0  1.2 -2 0  1.4 -2 0  1.6 -2 0  1.8 -2 0  2 -2 0  -2 -1.8 0  -1.8 -1.8 0  -1.6 -1.8 0  -1.4 -1.8 0  -1.2 -1.8 0  -1 -1.8 0  -0.8 -1.8 0  -0.6000000000000001 -1.8 0  -0.3999999999999999 -1.8 0  -0.2 -1.8 0  0 -1.8 0  0.2000000000000002 -1.8 0  0.3999999999999999 -1.8 0  0.6000000000000001 -1.8 0  0.7999999999999998 -1.8 0  1 -1.8 0  1.2 -1.8 0  1.4 -1.8 0  1.6 -1.8 0  1.8 -1.8 0  2 -1.8 0  -2 -1.6 0  -1.8 -1.6 0  -1.6 -1.6 0  -1.4 -1.6 0  -1.2 -1.6 0  -1 -1.6 0  -0.8 -1.6 0  -0.6000000000000001 -1.6 0  -0.3999999999999999 -1.6 0  -0.2 -1.6 0  0 -1.6 0  0.2000000000000002 -1.6 0  0.3999999999999999 -1.6 0  0.6000000000000001 -1.6 0  0.7999999999999998 -1.6 0  1 -1.6 0  1.2 -1.6 0  1.4 -1.6 0  1.6 -1.6 0  1.8 -1.6 0  2 -1.6 0  -2 -1.4 0  -1.8 -1.4 0  -1.6 -1.4 0  -1.4 -1.4 0  -1.2 -1.4 0  -1 -1.4 0  -0.8 -1.4 0  -0.6000000000000001 -1.4 0  -0.3999999999999999 -1.4 0  -0.2 -1.4 0  0 -1.4 0  0.2000000000000002 -1.4 0  0.3999999999999999 -1.4 0  0.6000000000000001 -1.4 0  0.7999999999999998 -1.4 0  1 -1.4 0  1.2 -1.4 0  1.4 -1.4 0  1.6 -1.4 0  1.8 -1.4 0  2 -1.4 0  -2 -1.2 0  -1.8 -1.2 0  -1.6 -1.2 0  -1.4 -1.2 0  -1.2 -1.2 0  -1 -1.2 0  -0.8 -1.2 0  -0.6000000000000001 -1.2 0  -0.3999999999999999 -1.2 0  -0.2 -1.2 0  0 -1.2 0  0.2000000000000002 -1.2 0  0.3999999999999999 -1.2 0  0.6000000000000001 -1.2 0  0.7999999999999998 -1.2 0  1 -1.2 0  1.2 -1.2 0  1.4 -1.2 0  1.6 -1.2 0  1.8 -1.2 0  2 -1.2 0  -2 -1 0  -1.8 -1 0  -1.6 -1 0  -1.4 -1 0  -1.2 -1 0  -1 -1 0  -0.8 -1 0  -0.6000000000000001 -1 0  -0.3999999999999999 -1 0  -0.2 -1 0  0 -1 0  0.2000000000000002 -1 0  0.3999999999999999 -1 0  0.6000000000000001 -1 0  0.7999999999999998 -1 0  1 -1 0  1.2 -1 0  1.4 -1 0  1.6 -1 0  1.8 -1 0  2 -1 0  -2 -0.8 0  -1.8 -0.8 0  -1.6 -0.8 0  -1.4 -0.8 0  -1.2 -0.8 0  -1 -0.8 0  -0.8 -0.8 0  -0.6000000000000001 -0.8 0  -0.3999999999999999 -0.8 0  -0.2 -0.8 0  0 -0.8 0  0.2000000000000002 -0.8 0  0.3999999999999999 -0.8 0  0.6000000000000001 -0.8 0  0.7999999999999998 -0.8 0  1 -0.8 0  1.2 -0.8 0  1.4 -0.8 0  1.6 -0.8 0  1.8 -0.8 0  2 -0.8 0  -2 -0.6000000000000001 0  -1.8 -0.6000000000000001 0  -1.6 -0.6000000000000001 0  -1.4 -0.6000000000000001 0  -1.2 -0.6000000000000001 0  -1 -0.6000000000000001 0  -0.8 -0.6000000000000001 0  -0.6000000000000001 -0.6000000000000001 0  -0.3999999999999999 -0.6000000000000001 0  -0.2 -0.6000000000000001 0  0 -0.6000000000000001 0  0.2000000000000002 -0.6000000000000001 0  0.3999999999999999 -0.6000000000000001 0  0.6000000000000001 -0.6000000000000001 0  0.7999999999999998 -0.6000000000000001 0  1 -0.6000000000000001 0  1.2 -0.6000000000000001 0  1.4 -0.6000000000000001 0  1.6 -0.6000000000000001 0  1.8 -0.6000000000000001 0  2 -0.6000000000000001 0  -2 -0.3999999999999999 0  -1.8 -0.3999999999999999 0  -1.6 -0.3999999999999999 0  -1.4 -0.3999999999999999 0  -1.2 -0.3999999999999999 0  -1 -0.3999999999999999 0  -0.8 -0.3999999999999999 0  -0.6000000000000001 -0.3999999999999999 0  -0.3999999999999999 -0.3999999999999999 0  -0.2 -0.3999999999999999 0  0 -0.3999999999999999 0  0.2000000000000002 -0.3999999999999999 0  0.3999999999999999 -0.3999999999999999 0  0.6000000000000001 -0.3999999999999999 0  0.7999999999999998 -0.3999999999999999 0  1 -0.3999999999999999 0  1.2 -0.3999999999999999 0  1.4 -0.3999999999999999 0  1.6 -0.3999999999999999 0  1.8 -0.3999999999999999 0  2 -0.3999999999999999 0  -2 -0.2 0  -1.8 -0.2 0  -1.6 -0.2 0  -1.4 -0.2 0  -1.2 -0.2 0  -1 -0.2 0  -0.8 -0.2 0  -0.6000000000000001 -0.2 0  -0.3999999999999999 -0.2 0  -0.2 -0.2 0  0 -0.2 0  0.2000000000000002 -0.2 0  0.3999999999999999 -0.2 0  0.6000000000000001 -0.2 0  0.7999999999999998 -0.2 0  1 -0.2 0  1.2 -0.2 0  1.4 -0.2 0  1.6 -0.2 0  1.8 -0.2 0  2 -0.2 0  -2 0 0  -1.8 0 0  -1.6 0 0  -1.4 0 0  -1.2 0 0  -1 0 0  -0.8 0 0  -0.6000000000000001 0 0  -0.3999999999999999 0 0  -0.2 0 0  0 0 0  0.2000000000000002 0 0  0.3999999999999999 0 0  0.6000000000000001 0 0  0.7999999999999998 0 0  1 0 0  1.2 0 0  1.4 0 0  1.6 0 0  1.8 0 0  2 0 0  -2 0.2000000000000002 0  -1.8 0.2000000000000002 0  -1.6 0.2000000000000002 0  -1.4 0.2000000000000002 0  -1.2 0.2000000000000002 0  -1 0.2000000000000002 0  -0.8 0.2000000000000002 0  -0.6000000000000001 0.2000000000000002 0  -0.3999999999999999 0.2000000000000002 0  -0.2 0.2000000000000002 0  0 0.2000000000000002 0  0.2000000000000002 0.2000000000000002 0  0.3999999999999999 0.2000000000000002 0  0.6000000000000001 0.2000000000000002 0  0.7999999999999998 0.2000000000000002 0  1 0.2000000000000002 0  1.2 0.2000000000000002 0  1.4 0.2000000000000002 0  1.6 0.2000000000000002 0  1.8 0.2000000000000002 0  2 0.2000000000000002 0  -2 0.3999999999999999 0  -1.8 0.3999999999999999 0  -1.6 0.3999999999999999 0  -1.4 0.3999999999999999 0  -1.2 0.3999999999999999 0  -1 0.3999999999999999 0  -0.8 0.3999999999999999 0  -0.6000000000000001 0.3999999999999999 0  -0.3999999999999999 0.3999999999999999 0  -0.2 0.3999999999999999 0  0 0.3999999999999999 0  0.2000000000000002 0.3999999999999999 0  0.3999999999999999 0.3999999999999999 0  0.6000000000000001 0.3999999999999999 0  0.7999999999999998 0.3999999999999999 0  1 0.3999999999999999 0  1.2 0.3999999999999999 0  1.4 0.3999999999999999 0  1.6 0.3999999999999999 0  1.8 0.3999999999999999 0  2 0.3999999999999999 0  -2 0.6000000000000001 0  -1.8 0.6000000000000001 0  -1.6 0.6000000000000001 0  -1.4 0.6000000000000001 0  -1.2 0.6000000000000001 0  -1 0.6000000000000001 0  -0.8 0.6000000000000001 0  -0.6000000000000001 0.6000000000000001 0  -0.3999999999999999 0.6000000000000001 0  -0.2 0.6000000000000001 0  0 0.6000000000000001 0  0.2000000000000002 0.6000000000000001 0  0.3999999999999999 0.6000000000000001 0  0.6000000000000001 0.6000000000000001 0  0.7999999999999998 0.6000000000000001 0  1 0.6000000000000001 0  1.2 0.6000000000000001 0  1.4 0.6000000000000001 0  1.6 0.6000000000000001 0  1.8 0.6000000000000001 0  2 0.6000000000000001 0  -2 0.7999999999999998 0  -1.8 0.7999999999999998 0  -1.6 0.7999999999999998 0  -1.4 0.7999999999999998 0  -1.2 0.7999999999999998 0  -1 0.7999999999999998 0  -0.8 0.7999999999999998 0  -0.6000000000000001 0.7999999999999998 0  -0.3999999999999999 0.7999999999999998 0  -0.2 0.7999999999999998 0  0 0.7999999999999998 0  0.2000000000000002 0.7999999999999998 0  0.3999999999999999 0.7999999999999998 0  0.6000000000000001 0.7999999999999998 0  0.7999999999999998 0.7999999999999998 0  1 0.7999999999999998 0  1.2 0.7999999999999998 0  1.4 0.7999999999999998 0  1.6 0.7999999999999998 0  1.8 0.7999999999999998 0  2 0.7999999999999998 0  -2 1 0  -1.8 1 0  -1.6 1 0  -1.4 1 0  -1.2 1 0  -1 1 0  -0.8 1 0  -0.6000000000000001 1 0  -0.3999999999999999 1 0  -0.2 1 0  0 1 0  0.2000000000000002 1 0  0.3999999999999999 1 0  0.6000000000000001 1 0  0.7999999999999998 1 0  1 1 0  1.2 1 0  1.4 1 0  1.6 1 0  1.8 1 0  2 1 0  -2 1.2 0  -1.8 1.2 0  -1.6 1.2 0  -1.4 1.2 0  -1.2 1.2 0  -1 1.2 0  -0.8 1.2 0  -0.6000000000000001 1.2 0  -0.3999999999999999 1.2 0  -0.2 1.2 0  0 1.2 0  0.2000000000000002 1.2 0  0.3999999999999999 1.2 0  0.6000000000000001 1.2 0  0.7999999999999998 1.2 0  1 1.2 0  1.2 1.2 0  1.4 1.2 0  1.6 1.2 0  1.8 1.2 0  2 1.2 0  -2 1.4 0  -1.8 1.4 0  -1.6 1.4 0  -1.4 1.4 0  -1.2 1.4 0  -1 1.4 0  -0.8 1.4 0  -0.6000000000000001 1.4 0  -0.3999999999999999 1.4 0  -0.2 1.4 0  0 1.4 0  0.2000000000000002 1.4 0  0.3999999999999999 1.4 0  0.6000000000000001 1.4 0  0.7999999999999998 1.4 0  1 1.4 0  1.2 1.4 0  1.4 1.4 0  1.6 1.4 0  1.8 1.4 0  2 1.4 0  -2 1.6 0  -1.8 1.6 0  -1.6 1.6 0  -1.4 1.6 0  -1.2 1.6 0  -1 1.6 0  -0.8 1.6 0  -0.6000000000000001 1.6 0  -0.3999999999999999 1.6 0  -0.2 1.6 0  0 1.6 0  0.2000000000000002 1.6 0  0.3999999999999999 1.6 0  0.6000000000000001 1.6 0  0.7999999999999998 1.6 0  1 1.6 0  1.2 1.6 0  1.4 1.6 0  1.6 1.6 0  1.8 1.6 0  2 1.6 0  -2 1.8 0  -1.8 1.8 0  -1.6 1.8 0  -1.4 1.8 0  -1.2 1.8 0  -1 1.8 0  -0.8 1.8 0  -0.6000000000000001 1.8 0  -0.3999999999999999 1.8 0  -0.2 1.8 0  0 1.8 0  0.2000000000000002 1.8 0  0.3999999999999999 1.8 0  0.6000000000000001 1.8 0  0.7999999999999998 1.8 0  1 1.8 0  1.2 1.8 0  1.4 1.8 0  1.6 1.8 0  1.8 1.8 0  2 1.8 0  -2 2 0  -1.8 2 0  -1.6 2 0  -1.4 2 0  -1.2 2 0  -1 2 0  -0.8 2 0  -0.6000000000000001 2 0  -0.3999999999999999 2 0  -0.2 2 0  0 2 0  0.2000000000000002 2 0  0.3999999999999999 2 0  0.6000000000000001 2 0  0.7999999999999998 2 0  1 2 0  1.2 2 0  1.4 2 0  1.6 2 0  1.8 2 0  2 2 0  </DataArray>
</Points>
<Cells>
[...]
<PointData  Scalars="f_8"> 
<DataArray  type="Float64"  Name="f_8"  format="ascii">3.3386510946221831e-01  3.3354362823359945e-01  3.3274319433053889e-01  3.3147684728589538e-01  3.2977183110984759e-01  3.2766780056122452e-01  3.2521518929379517e-01  3.2247358235167650e-01  3.1951002068282963e-01  3.1639721551368583e-01  3.1321168045868086e-01  3.1003180751413506e-01  3.0693592442207784e-01  3.0400037819148007e-01  3.0129769481662116e-01  2.9889487016084709e-01  2.9685185360774591e-01  2.9522029740888883e-01  2.9404266560221393e-01  2.9335183543769217e-01  2.9317139637838424e-01  3.3371731524608078e-01  3.3346045325796531e-01  3.3270188867577843e-01  3.3146377462479537e-01  3.2977853657154377e-01  3.2768876855915580e-01  3.2524656293693188e-01  3.2251243199955371e-01  3.1955392668059523e-01  3.1644402980683517e-01  3.1325938740625031e-01  3.1007843447150923e-01  3.0697946762236056e-01  3.0403871406104727e-01  3.0132844262937042e-01  2.9891515746898828e-01  2.9685790639778065e-01  2.9520672260033798e-01  2.9400119609442665e-01  2.9326913442807401e-01  2.9302520886707084e-01  3.3368006406929807e-01  3.3342802392327475e-01  3.3267840663074844e-01  3.3145034713562388e-01  3.2977478883804107e-01  3.2769361808255471e-01  3.2525860080957236e-01  3.2253010523401210e-01  3.1957562251612709e-01  3.1646811351278381e-01  3.1328421918606331e-01  3.1010237783452749e-01  3.0700089539127895e-01  3.0405601632401796e-01  3.0134004260050296e-01  2.9891954710175939e-01  2.9685372623787809e-01  2.9519293513519568e-01  2.9397744907969037e-01  2.9323649968290655e-01  2.9298764872866440e-01  3.3366658806045890e-01  3.3341546957587248e-01  3.3266833023478598e-01  3.3144374678848088e-01  3.2977212071310880e-01  3.2769488838440120e-01  3.2526346925130778e-01  3.2253797739981016e-01  3.1958572620792647e-01  3.1647956094671326e-01  3.1329605892755025e-01  3.1011364058491236e-01  3.0701063750033142e-01  3.0406336476045864e-01  3.0134424522336273e-01  2.9892003230874492e-01  2.9685017591389912e-01  2.9518537305502041e-01  2.9396634081975631e-01  2.9322284391957093e-01  2.9297300168988183e-01  3.3366155027435512e-01  3.3341073042667968e-01  3.3266446071062983e-01  3.3144118889584628e-01  3.2977114567477506e-01  3.2769558621896983e-01  3.2526575953637410e-01  3.2254163267362174e-01  3.1959040212637119e-01  3.1648482961226837e-01  3.1330144343617888e-01  3.1011864985580218e-01  3.0701480100149281e-01  3.0406626693004668e-01  3.0134555925506024e-01  2.9891955248760793e-01  2.9684784675617798e-01  2.9518131198358971e-01  2.9396084891520341e-01  2.9321639665446902e-01  2.9296620963092485e-01  3.3366000445454569e-01  3.3340929557439630e-01  3.3266335440512301e-01  3.3144058792992492e-01  3.2977116615524721e-01  3.2769627263378737e-01  3.2526708247219038e-01  3.2254349388536113e-01  3.1959264533642751e-01  3.1648725544934325e-01  3.1330382709917459e-01  3.1012076027949154e-01  3.0701642044132527e-01  3.0406720994325909e-01  3.0134569002508182e-01  2.9891879932477322e-01  2.9684621243545822e-01  2.9517887840784562e-01  2.9395777453447908e-01  2.9321290532443234e-01  2.9296257044529800e-01  3.3365994836651119e-01  3.3340927881197346e-01  3.3266345411841758e-01  3.3144086615736579e-01  3.2977166158700844e-01  3.2769699529235757e-01  3.2526801170510389e-01  3.2254457963542121e-01  3.1959381234426237e-01  3.1648840984511872e-01  3.1330486472837998e-01  3.1012157605297280e-01  3.0701691797872155e-01  3.0406731077673038e-01  3.0134534164089094e-01  2.9891798134730246e-01  2.9684494031419145e-01  2.9517720407406589e-01  2.9395578367870667e-01  2.9321071123552778e-01  2.9296030476019169e-01  3.3366050202352432e-01  3.3340984256041606e-01  3.3266404709701969e-01  3.3144150172489828e-01  3.2977234409378164e-01  3.2769771793560515e-01  3.2526875570139735e-01  3.2254531478542808e-01  3.1959449891945385e-01  3.1648900160482407e-01  3.1330531278353185e-01  3.1012183322997300e-01  3.0701694330107898e-01  3.0406707367139585e-01  3.0134482548945818e-01  2.9891718603982004e-01  2.9684388352678537e-01  2.9517592108275209e-01  2.9395432564113527e-01  2.9320914201653298e-01  2.9295869653560747e-01  3.3366127575966809e-01  3.3341061446865045e-01  3.3266481267072073e-01  3.3144225440703257e-01  3.2977307416067070e-01  3.2769841181197851e-01  3.2526939581236758e-01  3.2254587998971235e-01  3.1959496550503330e-01  3.1648934476981705e-01  3.1330550847614008e-01  3.1012186018506194e-01  3.0701678508907709e-01  3.0406672056860290e-01  3.0134427598774965e-01  2.9891644783779941e-01  2.9684297388276137e-01  2.9517486646077701e-01  2.9395316064184968e-01  2.9320790765030635e-01  2.9295743796031820e-01  3.3366211340360113e-01  3.3341144555967017e-01  3.3266562353628248e-01  3.3144303083787774e-01  3.2977380116508315e-01  3.2769907354969535e-01  3.2526997575252081e-01  3.2254636131086190e-01  3.1959533172698057e-01  3.1648958057946491e-01  3.1330560068584601e-01  3.1012179874384549e-01  3.0701656405621319e-01  3.0406633895645946e-01  3.0134373838650247e-01  2.9891576474855830e-01  2.9684216170676214e-01  2.9517394711911860e-01  2.9395216083069653e-01  2.9320685776791366e-01  2.9295637077169673e-01  3.3366297513056253e-01  3.3341229890594598e-01  3.3266645155407959e-01  3.3144381659196087e-01  3.2977452780443511e-01  3.2769972447074064e-01  3.2527053487459689e-01  3.2254681347007669e-01  3.1959566317874444e-01  3.1648977958452235e-01  3.1330565814115552e-01  3.1012170880954815e-01  3.0701632472423179e-01  3.0406595250561386e-01  3.0134321167360711e-01  2.9891510929451365e-01  2.9684139355045724e-01  2.9517308642892176e-01  2.9395123128198541e-01  2.9320588571383155e-01  2.9295538425137085e-01  3.3366387429762856e-01  3.3341318915803420e-01  3.3266731523285065e-01  3.3144463606805274e-01  3.2977528556768826e-01  3.2770040331391886e-01  3.2527111818993504e-01  3.2254728566322161e-01  3.1959601018877049e-01  3.1648998948337198e-01  3.1330572177266774e-01  3.1012162041852143e-01  3.0701608252073903e-01  3.0406555910963157e-01  3.0134267439009021e-01  2.9891444017903723e-01  2.9684060923971189e-01  2.9517220772754038e-01  2.9395028251593602e-01  2.9320489387924870e-01  2.9295437800446950e-01  3.3366483212484238e-01  3.3341413889204663e-01  3.3266824095854886e-01  3.3144552136357669e-01  3.2977611331980500e-01  3.2770115572107711e-01  3.2527177699238508e-01  3.2254783261256315e-01  3.1959642774089381e-01  3.1649026167190780e-01  3.1330583519728195e-01  3.1012156526568058e-01  3.0701585352531402e-01  3.0406515636469056e-01  3.0134210391963373e-01  2.9891371420383350e-01  2.9683974608876990e-01  2.9517123137548740e-01  2.9394922175741706e-01  2.9320378118271695e-01  2.9295324811632589e-01  3.3366583039083902e-01  3.3341513303369674e-01  3.3266922238679009e-01  3.3144647941135619e-01  3.2977703424860133e-01  3.2770202218033329e-01  3.2527256802508392e-01  3.2254852423788205e-01  3.1959699408239700e-01  3.1649067654314816e-01  3.1330607401031768e-01  3.1012160709463149e-01  3.0701568313826427e-01  3.0406476603372679e-01  3.0134149483074257e-01  2.9891289731538745e-01  2.9683874232839658e-01  2.9517007111831034e-01  2.9394794359076903e-01  2.9320243002860552e-01  2.9295187284660917e-01  3.3366674243116434e-01  3.3341605276632130e-01  3.3267016259359605e-01  3.3144744684065680e-01  3.2977802661862565e-01  3.2770302631560438e-01  3.2527355932799767e-01  3.2254946754158931e-01  3.1959784579024725e-01  3.1649138784477288e-01  3.1330659487824741e-01  3.1012189070753476e-01  3.0701569034541054e-01  3.0406446946831822e-01  3.0134088229671158e-01  2.9891197411394843e-01  2.9683753225895027e-01  2.9516861598506505e-01  2.9394630117158255e-01  2.9320067061137661e-01  2.9295007459870182e-01  3.3366720664917054e-01  3.3341655535118259e-01  3.3267077157099784e-01  3.3144821428261328e-01  3.2977898088640195e-01  3.2770416730431645e-01  3.2527485702711600e-01  3.2255086381883608e-01  3.1959925901922565e-01  3.1649271981660387e-01  3.1330773933680395e-01  3.1012274279849855e-01  3.0701615624964818e-01  3.0406447548698312e-01  3.0134038266521584e-01  2.9891095684993046e-01  2.9683602241023438e-01  2.9516667576057709e-01  2.9394402664008262e-01  2.9319818496608602e-01  2.9294751841731415e-01  3.3366635747231005e-01  3.3341582111620094e-01  3.3267035718655341e-01  3.3144828172673618e-01  3.2977963052940135e-01  3.2770542819156839e-01  3.2527668561838630e-01  3.2255314982760086e-01  3.1960183674462284e-01  3.1649538342311240e-01  3.1331026071560403e-01  3.1012489082501704e-01  3.0701771637501141e-01  3.0406526864088268e-01  3.0134028239721705e-01  2.9890990350406893e-01  2.9683403294348004e-01  2.9516384764557602e-01  2.9394053426340233e-01  2.9319426725840264e-01  2.9294345743371070e-01  3.3366218005527470e-01  3.3341195916768074e-01  3.3266736223646476e-01  3.3144657204247685e-01  3.2977945315857521e-01  3.2770685104677921e-01  3.2527960952884788e-01  3.2255733240560097e-01  3.1960692255322487e-01  3.1650093713158672e-01  3.1331580146121241e-01  3.1012992694414848e-01  3.0702178016087311e-01  3.0406795092894595e-01  3.0134126660471755e-01  2.9890899821237255e-01  2.9683120110171674e-01  2.9515922885018514e-01  2.9393445427044890e-01  2.9318722622141830e-01  2.9293608670064725e-01  3.3364968226185499e-01  3.3340043125767055e-01  3.3265831412718644e-01  3.3144095642683491e-01  3.2977769115726013e-01  3.2770892486996067e-01  3.2528516374462929e-01  3.2256576359334593e-01  3.1961745333141223e-01  3.1651267666706501e-01  3.1332779634892211e-01  3.1014120651168292e-01  3.0703140003206775e-01  3.0407503858402651e-01  3.0134507283115225e-01  2.9890895859257149e-01  2.9682701147158913e-01  2.9515093664777731e-01  2.9392256093119773e-01  2.9317277803648112e-01  2.9292069000941928e-01  3.3361350248913418e-01  3.3336917307167024e-01  3.3263591547295213e-01  3.3142845928871223e-01  3.2977471164071398e-01  3.2771439440518635e-01  3.2529769415547810e-01  3.2258382178948058e-01  3.1963944221674040e-01  3.1653697155653276e-01  3.1335276137986529e-01  3.1016520288346872e-01  3.0705279203076280e-01  3.0409220170574208e-01  3.0135641019244436e-01  2.9891293803336999e-01  2.9682224901212856e-01  2.9513637790029051e-01  2.9389786151828889e-01  2.9313907730305044e-01  2.9288214696879739e-01  3.3346756213709844e-01  3.3328683747312521e-01  3.3259487925990933e-01  3.3141534893321017e-01  3.2978123115761787e-01  3.2773512672842292e-01  3.2532884488199332e-01  3.2262250128628028e-01  3.1968325584901686e-01  3.1658378537098064e-01  3.1340056500856966e-01  3.1021202098851247e-01  3.0709661012255662e-01  3.0413087643316800e-01  3.0138752962021254e-01  2.9893358247699320e-01  2.9682857274598573e-01  2.9512287640939971e-01  2.9385608923834267e-01  2.9305540319419060e-01  2.9273381910051965e-01  </DataArray> 
</PointData> 
</Piece>
</UnstructuredGrid>
</VTKFile>