<?xml version="1.0"?>
<VTKFile type="UnstructuredGrid"  version="0.1"  >
<UnstructuredGrid>
<Piece  NumberOfPoints="441" NumberOfCells="800">
<Points>
<DataArray  type="Float64"  NumberOfComponents="3"  format="ascii">-2 -2 0  -1.8 -2 0  -1.6 -2 0  -1.4 -2 0  -1.2 -2 0  -1 -2 0  -0.8 -2 0  -0.6000000000000001 -2 0  -0.3999999999999999 -2 0  -0.2 -2 0  0 -2 0  0.2000000000000002 -2 0  0.3999999999999999 -2 0  0.6000000000000001 -2 0  0.7999999999999998 -2 0  1 -2 0  1.2 -2 0  1.4 -2 0  1.6 -2 0  1.8 -2 0  2 -2 0  -2 -1.8 0  -1.8 -1.8 0  -1.6 -1.8 0  -1.4 -1.8 0  -1.2 -1.8 0  -1 -1.8 0  -0.8 -1.8 0  -0.6000000000000001 -1.8 0  -0.3999999999999999 -1.8 0  -0.2 -1.8 0  0 -1.8 0  0.2000000000000002 -1.8 0  0.3999999999999999 -1.8 0  0.6000000000000001 -1.8 0  0.7999999999999998 -1.8 0  1 -1.8 0  1.2 -1.8 0  1.4 -1.8 0  1.6 -1.8 0  1.8 -1.8 0  2 -1.8 0  -2 -1.6 0  -1.8 -1.6 0  -1.6 -1.6 0  -1.4 -1.6 0  -1.2 -1.6 0  -1 -1.6 0  -0.8 -1.6 0  -0.6000000000000001 -1.6 0  -0.3999999999999999 -1.6 0  -0.2 -1.6 0  0 -1.6 0  0.2000000000000002 -1.6 0  0.3999999999999999 -1.6 0  0.6000000000000001 -1.6 0  0.7999999999999998 -1.6 0  1 -1.6 0  1.2 -1.6 0  1.4 -1.6 0  1.6 -1.6 0  1.8 -1.6 0  2 -1.6 0  -2 -1.4 0  -1.8 -1.4 0  -1.6 -1.4 0  -1.4 -1.4 0  -1.2 -1.4 0  -1 -1.4 0  -0.8 -1.4 0  -0.6000000000000001 -1.4 0  -0.3999999999999999 -1.4 0  -0.2 -1.4 0  0 -1.4 0  0.2000000000000002 -1.4 0  0.3999999999999999 -1.4 0  0.6000000000000001 -1.4 0  0.7999999999999998 -1.4 0  1 -1.4 0  1.2 -1.4 0  1.4 -1.4 0  1.6 -1.4 0  1.8 -1.4 0  2 -1.4 0  -2 -1.2 0  -1.8 -1.2 0  -1.6 -1.2 0  -1.4 -1.2 0  -1.2 -1.2 0  -1 -1.2 0  -0.8 -1.2 0  -0.6000000000000001 -1.2 0  -0.3999999999999999 -1.2 0  -0.2 -1.2 0  0 -1.2 0  0.2000000000000002 -1.2 0  0.3999999999999999 -1.2 0  0.6000000000000001 -1.2 0  0.7999999999999998 -1.2 0  1 -1.2 0  1.2 -1.2 0  1.4 -1.2 0  1.6 -1.2 0  1.8 -1.2 0  2 -1.2 0  -2 -1 0  -1.8 -1 0  -1.6 -1 0  -1.4 -1 0  -1.2 -1 0  -1 -1 0  -0.8 -1 0  -0.6000000000000001 -1 0  -0.3999999999999999 -1 0  -0.2 -1 0  0 -1 0  0.2000000000000002 -1 0  0.3999999999999999 -1 0  0.6000000000000001 -1 0  0.7999999999999998 -1 0  1 -1 0  1.2 -1 0  1.4 -1 0  1.6 -1 0  1.8 -1 0  2 -1 0  -2 -0.8 0  -1.8 -0.8 0  -1.6 -0.8 0  -1.4 -0.8 0  -1.2 -0.8 0  -1 -0.8 0  -0.8 -0.8 0  -0.6000000000000001 -0.8 0  -0.3999999999999999 -0.8 0  -0.2 -0.8 0  0 -0.8 0  0.2000000000000002 -0.8 0  0.3999999999999999 -0.8 0  0.6000000000000001 -0.8 0  0.7999999999999998 -0.8 0  1 -0.8 0  1.2 -0.8 0  1.4 -0.8 0  1.6 -0.8 0  1.8 -0.8 0  2 -0.8 0  -2 -0.6000000000000001 0  -1.8 -0.6000000000000001 0  -1.6 -0.6000000000000001 0  -1.4 -0.6000000000000001 0  -1.2 -0.6000000000000001 0  -1 -0.6000000000000001 0  -0.8 -0.6000000000000001 0  -0.6000000000000001 -0.6000000000000001 0  -0.3999999999999999 -0.6000000000000001 0  -0.2 -0.6000000000000001 0  0 -0.6000000000000001 0  0.2000000000000002 -0.6000000000000001 0  0.3999999999999999 -0.6000000000000001 0  0.6000000000000001 -0.6000000000000001 0  0.7999999999999998 -0.6000000000000001 0  1 -0.6000000000000001 0  1.2 -0.6000000000000001 0  1.4 -0.6000000000000001 0  1.6 -0.6000000000000001 0  1.8 -0.6000000000000001 0  2 -0.6000000000000001 0  -2 -0.3999999999999999 0  -1.8 -0.3999999999999999 0  -1.6 -0.3999999999999999 0  -1.4 -0.3999999999999999 0  -1.2 -0.3999999999999999 0  -1 -0.3999999999999999 0  -0.8 -0.3999999999999999 0  -0.6000000000000001 -0.3999999999999999 0  -0.3999999999999999 -0.3999999999999999 0  -0.2 -0.3999999999999999 0  0 -0.3999999999999999 0  0.2000000000000002 -0.3999999999999999 0  0.3999999999999999 -0.3999999999999999 0  0.6000000000000001 -0.3999999999999999 0  0.7999999999999998 -0.3999999999999999 0  1 -0.3999999999999999 0  1.2 -0.3999999999999999 0  1.4 -0.3999999999999999 0  1.6 -0.3999999999999999 0  1.8 -0.3999999999999999 0  2 -0.3999999999999999 0  -2 -0.2 0  -1.8 -0.2 0  -1.6 -0.2 0  -1.4 -0.2 0  -1.2 -0.2 0  -1 -0.2 0  -0.8 -0.2 0  -0.6000000000000001 -0.2 0  -0.3999999999999999 -0.2 0  -0.2 -0.2 0  0 -0.2 0  0.2000000000000002 -0.2 0  0.3999999999999999 -0.2 0  0.6000000000000001 -0.2 0  0.7999999999999998 -0.2 0  1 -0.2 0  1.2 -0.2 0  1.4 -0.2 0  1.6 -0.2 0  1.8 -0.2 0  2 -0.2 0  -2 0 0  -1.8 0 0  -1.6 0 0  -1.4 0 0  -1.2 0 0  -1 0 0  -0.8 0 0  -0.6000000000000001 0 0  -0.3999999999999999 0 0  -0.2 0 0  0 0 0  0.2000000000000002 0 0  0.3999999999999999 0 0  0.6000000000000001 0 0  0.7999999999999998 0 0  1 0 0  1.2 0 0  1.4 0 0  1.6 0 0  1.8 0 0  2 0 0  -2 0.2000000000000002 0  -1.8 0.2000000000000002 0  -1.6 0.2000000000000002 0  -1.4 0.2000000000000002 0  -1.2 0.2000000000000002 0  -1 0.2000000000000002 0  -0.8 0.2000000000000002 0  -0.6000000000000001 0.2000000000000002 0  -0.3999999999999999 0.2000000000000002 0  -0.2 0.2000000000000002 0  0 0.2000000000000002 0  0.2000000000000002 0.2000000000000002 0  0.3999999999999999 0.2000000000000002 0  0.6000000000000001 0.2000000000000002 0  0.7999999999999998 0.2000000000000002 0  1 0.2000000000000002 0  1.2 0.2000000000000002 0  1.4 0.2000000000000002 0  1.6 0.2000000000000002 0  1.8 0.2000000000000002 0  2 0.2000000000000002 0  -2 0.3999999999999999 0  -1.8 0.3999999999999999 0  -1.6 0.3999999999999999 0  -1.4 0.3999999999999999 0  -1.2 0.3999999999999999 0  -1 0.3999999999999999 0  -0.8 0.3999999999999999 0  -0.6000000000000001 0.3999999999999999 0  -0.3999999999999999 0.3999999999999999 0  -0.2 0.3999999999999999 0  0 0.3999999999999999 0  0.2000000000000002 0.3999999999999999 0  0.3999999999999999 0.3999999999999999 0  0.6000000000000001 0.3999999999999999 0  0.7999999999999998 0.3999999999999999 0  1 0.3999999999999999 0  1.2 0.3999999999999999 0  1.4 0.3999999999999999 0  1.6 0.3999999999999999 0  1.8 0.3999999999999999 0  2 0.3999999999999999 0  -2 0.6000000000000001 0  -1.8 0.6000000000000001 0  -1.6 0.6000000000000001 0  -1.4 0.6000000000000001 0  -1.2 0.6000000000000001 0  -1 0.6000000000000001 0  -0.8 0.6000000000000001 0  -0.6000000000000001 0.6000000000000001 0  -0.3999999999999999 0.6000000000000001 0  -0.2 0.6000000000000001 0  0 0.6000000000000001 0  0.2000000000000002 0.6000000000000001 0  0.3999999999999999 0.6000000000000001 0  0.6000000000000001 0.6000000000000001 0  0.7999999999999998 0.6000000000000001 0  1 0.6000000000000001 0  1.2 0.6000000000000001 0  1.4 0.6000000000000001 0  1.6 0.6000000000000001 0  1.8 0.6000000000000001 0  2 0.6000000000000001 0  -2 0.7999999999999998 0  -1.8 0.7999999999999998 0  -1.6 0.7999999999999998 0  -1.4 0.7999999999999998 0  -1.2 0.7999999999999998 0  -1 0.7999999999999998 0  -0.8 0.7999999999999998 0  -0.6000000000000001 0.7999999999999998 0  -0.3999999999999999 0.7999999999999998 0  -0.2 0.7999999999999998 0  0 0.7999999999999998 0  0.2000000000000002 0.7999999999999998 0  0.3999999999999999 0.7999999999999998 0  0.6000000000000001 0.7999999999999998 0  0.7999999999999998 0.7999999999999998 0  1 0.7999999999999998 0  1.2 0.7999999999999998 0  1.4 0.7999999999999998 0  1.6 0.7999999999999998 0  1.8 0.7999999999999998 0  2 0.7999999999999998 0  -2 1 0  -1.8 1 0  -1.6 1 0  -1.4 1 0  -1.2 1 0  -1 1 0  -0.8 1 0  -0.6000000000000001 1 0  -0.3999999999999999 1 0  -0.2 1 0  0 1 0  0.2000000000000002 1 0  0.3999999999999999 1 0  0.6000000000000001 1 0  0.7999999999999998 1 0  1 1 0  1.2 1 0  1.4 1 0  1.6 1 0  1.8 1 0  2 1 0  -2 1.2 0  -1.8 1.2 0  -1.6 1.2 0  -1.4 1.2 0  -1.2 1.2 0  -1 1.2 0  -0.8 1.2 0  -0.6000000000000001 1.2 0  -0.3999999999999999 1.2 0  -0.2 1.2 0  0 1.2 0  0.2000000000000002 1.2 0  0.3999999999999999 1.2 0  0.6000000000000001 1.2 0  0.7999999999999998 1.2 0  1 1.2 0  1.2 1.2 0  1.4 1.2 0  1.6 1.2 0  1.8 1.2 0  2 1.2 0  -2 1.4 0  -1.8 1.4 0  -1.6 1.4 0  -1.4 1.4 0  -1.2 1.4 0  -1 1.4 0  -0.8 1.4 0  -0.6000000000000001 1.4 0  -0.3999999999999999 1.4 0  -0.2 1.4 0  0 1.4 0  0.2000000000000002 1.4 0  0.3999999999999999 1.4 0  0.6000000000000001 1.4 0  0.7999999999999998 1.4 0  1 1.4 0  1.2 1.4 0  1.4 1.4 0  1.6 1.4 0  1.8 1.4 0  2 1.4 0  -2 1.6 0  -1.8 1.6 0  -1.6 1.6 0  -1.4 1.6 0  -1.2 1.6 0  -1 1.6 0  -0.8 1.6 0  -0.6000000000000001 1.6 0  -0.3999999999999999 1.6 0  -0.2 1.6 0  0 1.6 0  0.2000000000000002 1.6 0  0.3999999999999999 1.6 0  0.6000000000000001 1.6 0  0.7999999999999998 1.6 0  1 1.6 0  1.2 1.6 0  1.4 1.6 0  1.6 1.6 0  1.8 1.6 0  2 1.6 0  -2 1.8 0  -1.8 1.8 0  -1.6 1.8 0  -1.4 1.8 0  -1.2 1.8 0  -1 1.8 0  -0.8 1.8 0  -0.6000000000000001 1.8 0  -0.3999999999999999 1.8 0  -0.2 1.8 0  0 1.8 0  0.2000000000000002 1.8 0  0.3999999999999999 1.8 0  0.6000000000000001 1.8 0  0.7999999999999998 1.8 0  1 1.8 0  1.2 1.8 0  1.4 1.8 0  1.6 1.8 0  1.8 1.8 0  2 1.8 0  -2 2 0  -1.8 2 0  -1.6 2 0  -1.4 2 0  -1.2 2 0  -1 2 0  -0.8 2 0  -0.6000000000000001 2 0  -0.3999999999999999 2 0  -0.2 2 0  0 2 0  0.2000000000000002 2 0  0.3999999999999999 2 0  0.6000000000000001 2 0  0.7999999999999998 2 0  1 2 0  1.2 2 0  1.4 2 0  1.6 2 0  1.8 2 0  2 2 0  </DataArray>
</Points>
<Cells>
[...]
<PointData  Scalars="f_8"> 
<DataArray  type="Float64"  Name="f_8"  format="ascii">6.6282859249974929e-02  6.5566239027635323e-02  6.3800369946156621e-02  6.1060864379805152e-02  5.7474072871000689e-02  5.3204194290936063e-02  4.8439018118235110e-02  4.3375372076570343e-02  3.8205488590912169e-02  3.3105399645756699e-02  2.8226194024982353e-02  2.3688599959103836e-02  1.9580963429547679e-02  1.5960339904858442e-02  1.2856148967162882e-02  1.0275679546851138e-02  8.2106804617699519e-03  6.6443135501868655e-03  5.5578642839143148e-03  4.9367783702463398e-03  4.7758147629454184e-03  6.5988195308681274e-02  6.5418614148899212e-02  6.3751520584199112e-02  6.1078844599678127e-02  5.7535989312708091e-02  5.3292459049721685e-02  4.8539577041174849e-02  4.3476983786079205e-02  3.8299494189083176e-02  3.3185648511307848e-02  2.8288937451968484e-02  2.3732261861289523e-02  1.9605760403907695e-02  1.5967758263667815e-02  1.2848296933953497e-02  1.0254519611030756e-02  8.1771082954759829e-03  6.5969794459399692e-03  5.4915149728688179e-03  4.8396984547414892e-03  4.6256045311611352e-03  6.5945601145976140e-02  6.5386882761434270e-02  6.3739905065355859e-02  6.1088567205519265e-02  5.7563935603908011e-02  5.3333371265838980e-02  4.8587446115788288e-02  4.3525977170650827e-02  3.8344571385723884e-02  3.3222929954908213e-02  2.8315860136048743e-02  2.3747550115130987e-02  1.9609246453555086e-02  1.5960095529428550e-02  1.2830615340516617e-02  1.0228076466868024e-02  8.1429941455238106e-03  6.5559532950115384e-03  5.4440804968006783e-03  4.7866146106627155e-03  4.5691898017160620e-03  6.5950517198685013e-02  6.5393392453658591e-02  6.3750448686615419e-02  6.1104120159301507e-02  5.7584058063825751e-02  5.3356559725665657e-02  4.8611582326008700e-02  4.3548765148584932e-02  3.8363901636091144e-02  3.3237138692770819e-02  2.8323871895947216e-02  2.3748908725676289e-02  1.9604052576174383e-02  1.5948878325613723e-02  1.2814170973843960e-02  1.0207307238850674e-02  8.1187796967651452e-03  6.5290798733583788e-03  5.4152448923030895e-03  4.7565018671267426e-03  4.5385875470084006e-03  6.5963143539000096e-02  6.5406242889448837e-02  6.3763799496463519e-02  6.1117972453951369e-02  5.7598082040137062e-02  5.3370140652551197e-02  4.8623932804484703e-02  4.3559064732364580e-02  3.8371430160218677e-02  3.3241378883149750e-02  2.8324567496748190e-02  2.3746074773864697e-02  1.9597943269716141e-02  1.5939924267650032e-02  1.2802900985996813e-02  1.0194270440493753e-02  8.1044815111765926e-03  6.5139415777750263e-03  5.3995907991280312e-03  4.7405717024221923e-03  4.5225649217929577e-03  6.5972636103913809e-02  6.5415695041846883e-02  6.3773048174565777e-02  6.1126808777512490e-02  5.7606243813853458e-02  5.3377327532219070e-02  4.8629839268460887e-02  4.3563421509892612e-02  3.8374043685724710e-02  3.3242159940432746e-02  2.8323543493825702e-02  2.3743384020838778e-02  1.9593813315848446e-02  1.5934639126565300e-02  1.2796763578508804e-02  1.0187566755004670e-02  8.0974520105037626e-03  6.5067636121312646e-03  5.3923736231108899e-03  4.7333635439506310e-03  4.5153698006483306e-03  6.5977665305481964e-02  6.5420663176784188e-02  6.3777803522020934e-02  6.1131198842510122e-02  5.7610120190790030e-02  5.3380554617831893e-02  4.8632305689317243e-02  4.3565051919132465e-02  3.8374808165217988e-02  3.3242078635507176e-02  2.8322685104256371e-02  2.3741858053028770e-02  1.9591757231154392e-02  1.5932202430252482e-02  1.2794091330001700e-02  1.0184784919540807e-02  8.0946566011923984e-03  6.5040148439035311e-03  5.3896954897283576e-03  4.7307484875134687e-03  4.5127875721466641e-03  6.5979721665411023e-02  6.5422682486523956e-02  6.3779710070359999e-02  6.1132921299224499e-02  5.7611595612266163e-02  5.3381732609823609e-02  4.8633152282240404e-02  4.3565552520640587e-02  3.8374968942470361e-02  3.3241925862825247e-02  2.8322262342653316e-02  2.3741221416290956e-02  1.9590969338478703e-02  1.5931325867162602e-02  1.2793182495876323e-02  1.0183889035181221e-02  8.0938044246974070e-03  6.5032213600789502e-03  5.3889605611800381e-03  4.7300592329690356e-03  4.5121220927688997e-03  6.5980370357050913e-02  6.5423314454646206e-02  6.3780298275148653e-02  6.1133441313787111e-02  5.7612027348209867e-02  5.3382061802435675e-02  4.8633371569331951e-02  4.3565661953280065e-02  3.8374975810554803e-02  3.3241843802319843e-02  2.8322109798310870e-02  2.3741019638426814e-02  1.9590740168799008e-02  1.5931089598060080e-02  1.2792956064187516e-02  1.0183684743162232e-02  8.0936292865572430e-03  6.5030770749812282e-03  5.3888440340790324e-03  4.7299635161373345e-03  4.5120376061273150e-03  6.5980519203114651e-02  6.5423457243187530e-02  6.3780427988120156e-02  6.1133551936149000e-02  5.7612114373414618e-02  5.3382122607881798e-02  4.8633405614628956e-02  4.3565670770183577e-02  3.8374962777685262e-02  3.3241813727323634e-02  2.8322068359399065e-02  2.3740972759553242e-02  1.9590693412413367e-02  1.5931047653569914e-02  1.2792922390060905e-02  1.0183661390759201e-02  8.0936169013884531e-03  6.5030750435833302e-03  5.3888507278032427e-03  4.7299765794795402e-03  4.5120542457760425e-03  6.5980537206676793e-02  6.5423473648898944e-02  6.3780441623584927e-02  6.1133561898496204e-02  5.7612120133240491e-02  5.3382124069833663e-02  4.8633403124930683e-02  4.3565665068717438e-02  3.8374954900641127e-02  3.3241804874482354e-02  2.8322059746173422e-02  2.3740965476495190e-02  1.9590688313195007e-02  1.5931045286619004e-02  1.2792922980265135e-02  1.0183664867891342e-02  8.0936229633527482e-03  6.5030832371310117e-03  5.3888605281059354e-03  4.7299874529329678e-03  4.5120656866749296e-03  6.5980534091369197e-02  6.5423470638824088e-02  6.3780438105749501e-02  6.1133557350107753e-02  5.7612114204248499e-02  5.3382116634360446e-02  4.8633394295361836e-02  4.3565655172487103e-02  3.8374944425837741e-02  3.3241794395210994e-02  2.8322049841206801e-02  2.3740956654634063e-02  1.9590680956054752e-02  1.5931039614993432e-02  1.2792919044953147e-02  1.0183662561191633e-02  8.0936220443942556e-03  6.5030833633708740e-03  5.3888612866259305e-03  4.7299883879639657e-03  4.5120663230796970e-03  6.5980579230513467e-02  6.5423515529614007e-02  6.3780477994891949e-02  6.1133588042723550e-02  5.7612132460267286e-02  5.3382120444276808e-02  4.8633383009442942e-02  4.3565629475113984e-02  3.8374906165918696e-02  3.3241746301523614e-02  2.8321995164791797e-02  2.3740898786456570e-02  1.9590623066208106e-02  1.5930984350841688e-02  1.2792868312471960e-02  1.0183617399770504e-02  8.0935825935857190e-03  6.5030489124209227e-03  5.3888303944119751e-03  4.7299590610448555e-03  4.5120362408579808e-03  6.5980933010494250e-02  6.5423861692487012e-02  6.3780794338325036e-02  6.1133854968314680e-02  5.7612334418251608e-02  5.3382247014743270e-02  4.8633429515724136e-02  4.3565597058467569e-02  3.8374801305931051e-02  3.3241579835000833e-02  2.8321780922250735e-02  2.3740652014315040e-02  1.9590358823906792e-02  1.5930716062708281e-02  1.2792606619202500e-02  1.0183369404229316e-02  8.0933515419734110e-03  6.5028343043900226e-03  5.3886284797156469e-03  4.7297636562834908e-03  4.5118397847954015e-03  6.5982418623134698e-02  6.5425312346142392e-02  6.3782139340561608e-02  6.1135030619016380e-02  5.7613287742500123e-02  5.3382939073947838e-02  4.8633837913808473e-02  4.3565717212559078e-02  3.8374646149343335e-02  3.3241177837570933e-02  2.8321172585251478e-02  2.3739885250239390e-02  1.9589483805406170e-02  1.5929780188233374e-02  1.2791650195258476e-02  1.0182422510314818e-02  8.0924323617231897e-03  6.5019490127831382e-03  5.3877725999266447e-03  4.7289246566539489e-03  4.5110005814123456e-03  6.5986792086462576e-02  6.5429593584390947e-02  6.3786169605451359e-02  6.1138658968920991e-02  5.7616377065403672e-02  5.3385374412195395e-02  4.8635535644799506e-02  4.3566632959620467e-02  3.8374779362089877e-02  3.3240571648248188e-02  2.8319908544549723e-02  2.3738073576482579e-02  1.9587250602453136e-02  1.5927253555203254e-02  1.2788947227591090e-02  1.0179638927126443e-02  8.0896359922215423e-03  6.4991777528631443e-03  5.3850368136187498e-03  4.7262134251298835e-03  4.5082907527797820e-03  6.5996301663150111e-02  6.5438969559300203e-02  6.3795202739724735e-02  6.1147108611593386e-02  5.7623971427295070e-02  5.3391830117901627e-02  4.8640589855961772e-02  4.3570078671803611e-02  3.8376494869779565e-02  3.3240537626109637e-02  2.8318209638336700e-02  2.3734884897927664e-02  1.9582812383764719e-02  1.5921839036655238e-02  1.2782829508449093e-02  1.0173062117492134e-02  8.0827948124305889e-03  6.4922080340436665e-03  5.3780174324840179e-03  4.7191782993530581e-03  4.5012478936114261e-03  6.6010816374855202e-02  6.5453576330566518e-02  6.3810053580048307e-02  6.1162087362487544e-02  5.7638667972697850e-02  5.3405605439562437e-02  4.8652693248525156e-02  4.3579779458202801e-02  3.8383198629614583e-02  3.3243867213501768e-02  2.8318041892637823e-02  2.3731343469953883e-02  1.9576224510941626e-02  1.5912668854010187e-02  1.2771602485885835e-02  1.0160294753360792e-02  8.0689412869047843e-03  6.4776316293233636e-03  5.3629894769705250e-03  4.7039013097828521e-03  4.4858927509204031e-03  6.6020133162760467e-02  6.5464491027590027e-02  6.3824730896166137e-02  6.1181222245778065e-02  5.7661616212288491e-02  5.3430765042272857e-02  4.8677954100414478e-02  4.3602943842542222e-02  3.8402319391864982e-02  3.3257477246175546e-02  2.8325268131094740e-02  2.3731914037318922e-02  1.9570389453473547e-02  1.5901062717467988e-02  1.2755080698956527e-02  1.0139775871328945e-02  8.0452844366652523e-03  6.4515735513172839e-03  5.3351575848163222e-03  4.6749041811915450e-03  4.4564569200559179e-03  6.5983043992845686e-02  6.5438803017797587e-02  6.3818870917045176e-02  6.1196010421177116e-02  5.7693765027643666e-02  5.3474971182272117e-02  4.8728237642606025e-02  4.3653548029752728e-02  3.8448310238108969e-02  3.3295102110432025e-02  2.8352103491448160e-02  2.3746829509471958e-02  1.9573362213511563e-02  1.5892885111003462e-02  1.2737010024927954e-02  1.0113179187702709e-02  8.0113364660960567e-03  6.4110800657473646e-03  5.2886132265969272e-03  4.6229750195663673e-03  4.4012437733854069e-03  6.5691850385539555e-02  6.5292652511215424e-02  6.3770717012914299e-02  6.1214688667442910e-02  5.7756832361551491e-02  5.3565021756439783e-02  4.8831184550573996e-02  4.3757959910733814e-02  3.8545244613387125e-02  3.3378096004070962e-02  2.8417125564077758e-02  2.3792095927648541e-02  1.9598984158508109e-02  1.5900354659864481e-02  1.2728545022722805e-02  1.0090936770755751e-02  7.9764670299919613e-03  6.3625221818231709e-03  5.2214097455380391e-03  4.5256888407728107e-03  4.2517053646224188e-03  </DataArray> 
</PointData> 
</Piece>
</UnstructuredGrid>
</VTKFile>