<?xml version="1.0"?>
<VTKFile type="UnstructuredGrid"  version="0.1"  >
<UnstructuredGrid>
<Piece  NumberOfPoints="441" NumberOfCells="800">
<Points>
<DataArray  type="Float64"  NumberOfComponents="3"  format="ascii">-2 -2 0  -1.8 -2 0  -1.6 -2 0  -1.4 -2 0  -1.2 -2 0  -1 -2 0  -0.8 -2 0  -0.6000000000000001 -2 0  -0.3999999999999999 -2 0  -0.2 -2 0  0 -2 0  0.2000000000000002 -2 0  0.3999999999999999 -2 0  0.6000000000000001 -2 0  0.7999999999999998 -2 0  1 -2 0  1.2 -2 0  1.4 -2 0  1.6 -2 0  1.8 -2 0  2 -2 0  -2 -1.8 0  -1.8 -1.8 0  -1.6 -1.8 0  -1.4 -1.8 0  -1.2 -1.8 0  -1 -1.8 0  -0.8 -1.8 0  -0.6000000000000001 -1.8 0  -0.3999999999999999 -1.8 0  -0.2 -1.8 0  0 -1.8 0  0.2000000000000002 -1.8 0  0.3999999999999999 -1.8 0  0.6000000000000001 -1.8 0  0.7999999999999998 -1.8 0  1 -1.8 0  1.2 -1.8 0  1.4 -1.8 0  1.6 -1.8 0  1.8 -1.8 0  2 -1.8 0  -2 -1.6 0  -1.8 -1.6 0  -1.6 -1.6 0  -1.4 -1.6 0  -1.2 -1.6 0  -1 -1.6 0  -0.8 -1.6 0  -0.6000000000000001 -1.6 0  -0.3999999999999999 -1.6 0  -0.2 -1.6 0  0 -1.6 0  0.2000000000000002 -1.6 0  0.3999999999999999 -1.6 0  0.6000000000000001 -1.6 0  0.7999999999999998 -1.6 0  1 -1.6 0  1.2 -1.6 0  1.4 -1.6 0  1.6 -1.6 0  1.8 -1.6 0  2 -1.6 0  -2 -1.4 0  -1.8 -1.4 0  -1.6 -1.4 0  -1.4 -1.4 0  -1.2 -1.4 0  -1 -1.4 0  -0.8 -1.4 0  -0.6000000000000001 -1.4 0  -0.3999999999999999 -1.4 0  -0.2 -1.4 0  0 -1.4 0  0.2000000000000002 -1.4 0  0.3999999999999999 -1.4 0  0.6000000000000001 -1.4 0  0.7999999999999998 -1.4 0  1 -1.4 0  1.2 -1.4 0  1.4 -1.4 0  1.6 -1.4 0  1.8 -1.4 0  2 -1.4 0  -2 -1.2 0  -1.8 -1.2 0  -1.6 -1.2 0  -1.4 -1.2 0  -1.2 -1.2 0  -1 -1.2 0  -0.8 -1.2 0  -0.6000000000000001 -1.2 0  -0.3999999999999999 -1.2 0  -0.2 -1.2 0  0 -1.2 0  0.2000000000000002 -1.2 0  0.3999999999999999 -1.2 0  0.6000000000000001 -1.2 0  0.7999999999999998 -1.2 0  1 -1.2 0  1.2 -1.2 0  1.4 -1.2 0  1.6 -1.2 0  1.8 -1.2 0  2 -1.2 0  -2 -1 0  -1.8 -1 0  -1.6 -1 0  -1.4 -1 0  -1.2 -1 0  -1 -1 0  -0.8 -1 0  -0.6000000000000001 -1 0  -0.3999999999999999 -1 0  -0.2 -1 0  0 -1 0  0.2000000000000002 -1 0  0.3999999999999999 -1 0  0.6000000000000001 -1 0  0.7999999999999998 -1 0  1 -1 0  1.2 -1 0  1.4 -1 0  1.6 -1 0  1.8 -1 0  2 -1 0  -2 -0.8 0  -1.8 -0.8 0  -1.6 -0.8 0  -1.4 -0.8 0  -1.2 -0.8 0  -1 -0.8 0  -0.8 -0.8 0  -0.6000000000000001 -0.8 0  -0.3999999999999999 -0.8 0  -0.2 -0.8 0  0 -0.8 0  0.2000000000000002 -0.8 0  0.3999999999999999 -0.8 0  0.6000000000000001 -0.8 0  0.7999999999999998 -0.8 0  1 -0.8 0  1.2 -0.8 0  1.4 -0.8 0  1.6 -0.8 0  1.8 -0.8 0  2 -0.8 0  -2 -0.6000000000000001 0  -1.8 -0.6000000000000001 0  -1.6 -0.6000000000000001 0  -1.4 -0.6000000000000001 0  -1.2 -0.6000000000000001 0  -1 -0.6000000000000001 0  -0.8 -0.6000000000000001 0  -0.6000000000000001 -0.6000000000000001 0  -0.3999999999999999 -0.6000000000000001 0  -0.2 -0.6000000000000001 0  0 -0.6000000000000001 0  0.2000000000000002 -0.6000000000000001 0  0.3999999999999999 -0.6000000000000001 0  0.6000000000000001 -0.6000000000000001 0  0.7999999999999998 -0.6000000000000001 0  1 -0.6000000000000001 0  1.2 -0.6000000000000001 0  1.4 -0.6000000000000001 0  1.6 -0.6000000000000001 0  1.8 -0.6000000000000001 0  2 -0.6000000000000001 0  -2 -0.3999999999999999 0  -1.8 -0.3999999999999999 0  -1.6 -0.3999999999999999 0  -1.4 -0.3999999999999999 0  -1.2 -0.3999999999999999 0  -1 -0.3999999999999999 0  -0.8 -0.3999999999999999 0  -0.6000000000000001 -0.3999999999999999 0  -0.3999999999999999 -0.3999999999999999 0  -0.2 -0.3999999999999999 0  0 -0.3999999999999999 0  0.2000000000000002 -0.3999999999999999 0  0.3999999999999999 -0.3999999999999999 0  0.6000000000000001 -0.3999999999999999 0  0.7999999999999998 -0.3999999999999999 0  1 -0.3999999999999999 0  1.2 -0.3999999999999999 0  1.4 -0.3999999999999999 0  1.6 -0.3999999999999999 0  1.8 -0.3999999999999999 0  2 -0.3999999999999999 0  -2 -0.2 0  -1.8 -0.2 0  -1.6 -0.2 0  -1.4 -0.2 0  -1.2 -0.2 0  -1 -0.2 0  -0.8 -0.2 0  -0.6000000000000001 -0.2 0  -0.3999999999999999 -0.2 0  -0.2 -0.2 0  0 -0.2 0  0.2000000000000002 -0.2 0  0.3999999999999999 -0.2 0  0.6000000000000001 -0.2 0  0.7999999999999998 -0.2 0  1 -0.2 0  1.2 -0.2 0  1.4 -0.2 0  1.6 -0.2 0  1.8 -0.2 0  2 -0.2 0  -2 0 0  -1.8 0 0  -1.6 0 0  -1.4 0 0  -1.2 0 0  -1 0 0  -0.8 0 0  -0.6000000000000001 0 0  -0.3999999999999999 0 0  -0.2 0 0  0 0 0  0.2000000000000002 0 0  0.3999999999999999 0 0  0.6000000000000001 0 0  0.7999999999999998 0 0  1 0 0  1.2 0 0  1.4 0 0  1.6 0 0  1.8 0 0  2 0 0  -2 0.2000000000000002 0  -1.8 0.2000000000000002 0  -1.6 0.2000000000000002 0  -1.4 0.2000000000000002 0  -1.2 0.2000000000000002 0  -1 0.2000000000000002 0  -0.8 0.2000000000000002 0  -0.6000000000000001 0.2000000000000002 0  -0.3999999999999999 0.2000000000000002 0  -0.2 0.2000000000000002 0  0 0.2000000000000002 0  0.2000000000000002 0.2000000000000002 0  0.3999999999999999 0.2000000000000002 0  0.6000000000000001 0.2000000000000002 0  0.7999999999999998 0.2000000000000002 0  1 0.2000000000000002 0  1.2 0.2000000000000002 0  1.4 0.2000000000000002 0  1.6 0.2000000000000002 0  1.8 0.2000000000000002 0  2 0.2000000000000002 0  -2 0.3999999999999999 0  -1.8 0.3999999999999999 0  -1.6 0.3999999999999999 0  -1.4 0.3999999999999999 0  -1.2 0.3999999999999999 0  -1 0.3999999999999999 0  -0.8 0.3999999999999999 0  -0.6000000000000001 0.3999999999999999 0  -0.3999999999999999 0.3999999999999999 0  -0.2 0.3999999999999999 0  0 0.3999999999999999 0  0.2000000000000002 0.3999999999999999 0  0.3999999999999999 0.3999999999999999 0  0.6000000000000001 0.3999999999999999 0  0.7999999999999998 0.3999999999999999 0  1 0.3999999999999999 0  1.2 0.3999999999999999 0  1.4 0.3999999999999999 0  1.6 0.3999999999999999 0  1.8 0.3999999999999999 0  2 0.3999999999999999 0  -2 0.6000000000000001 0  -1.8 0.6000000000000001 0  -1.6 0.6000000000000001 0  -1.4 0.6000000000000001 0  -1.2 0.6000000000000001 0  -1 0.6000000000000001 0  -0.8 0.6000000000000001 0  -0.6000000000000001 0.6000000000000001 0  -0.3999999999999999 0.6000000000000001 0  -0.2 0.6000000000000001 0  0 0.6000000000000001 0  0.2000000000000002 0.6000000000000001 0  0.3999999999999999 0.6000000000000001 0  0.6000000000000001 0.6000000000000001 0  0.7999999999999998 0.6000000000000001 0  1 0.6000000000000001 0  1.2 0.6000000000000001 0  1.4 0.6000000000000001 0  1.6 0.6000000000000001 0  1.8 0.6000000000000001 0  2 0.6000000000000001 0  -2 0.7999999999999998 0  -1.8 0.7999999999999998 0  -1.6 0.7999999999999998 0  -1.4 0.7999999999999998 0  -1.2 0.7999999999999998 0  -1 0.7999999999999998 0  -0.8 0.7999999999999998 0  -0.6000000000000001 0.7999999999999998 0  -0.3999999999999999 0.7999999999999998 0  -0.2 0.7999999999999998 0  0 0.7999999999999998 0  0.2000000000000002 0.7999999999999998 0  0.3999999999999999 0.7999999999999998 0  0.6000000000000001 0.7999999999999998 0  0.7999999999999998 0.7999999999999998 0  1 0.7999999999999998 0  1.2 0.7999999999999998 0  1.4 0.7999999999999998 0  1.6 0.7999999999999998 0  1.8 0.7999999999999998 0  2 0.7999999999999998 0  -2 1 0  -1.8 1 0  -1.6 1 0  -1.4 1 0  -1.2 1 0  -1 1 0  -0.8 1 0  -0.6000000000000001 1 0  -0.3999999999999999 1 0  -0.2 1 0  0 1 0  0.2000000000000002 1 0  0.3999999999999999 1 0  0.6000000000000001 1 0  0.7999999999999998 1 0  1 1 0  1.2 1 0  1.4 1 0  1.6 1 0  1.8 1 0  2 1 0  -2 1.2 0  -1.8 1.2 0  -1.6 1.2 0  -1.4 1.2 0  -1.2 1.2 0  -1 1.2 0  -0.8 1.2 0  -0.6000000000000001 1.2 0  -0.3999999999999999 1.2 0  -0.2 1.2 0  0 1.2 0  0.2000000000000002 1.2 0  0.3999999999999999 1.2 0  0.6000000000000001 1.2 0  0.7999999999999998 1.2 0  1 1.2 0  1.2 1.2 0  1.4 1.2 0  1.6 1.2 0  1.8 1.2 0  2 1.2 0  -2 1.4 0  -1.8 1.4 0  -1.6 1.4 0  -1.4 1.4 0  -1.2 1.4 0  -1 1.4 0  -0.8 1.4 0  -0.6000000000000001 1.4 0  -0.3999999999999999 1.4 0  -0.2 1.4 0  0 1.4 0  0.2000000000000002 1.4 0  0.3999999999999999 1.4 0  0.6000000000000001 1.4 0  0.7999999999999998 1.4 0  1 1.4 0  1.2 1.4 0  1.4 1.4 0  1.6 1.4 0  1.8 1.4 0  2 1.4 0  -2 1.6 0  -1.8 1.6 0  -1.6 1.6 0  -1.4 1.6 0  -1.2 1.6 0  -1 1.6 0  -0.8 1.6 0  -0.6000000000000001 1.6 0  -0.3999999999999999 1.6 0  -0.2 1.6 0  0 1.6 0  0.2000000000000002 1.6 0  0.3999999999999999 1.6 0  0.6000000000000001 1.6 0  0.7999999999999998 1.6 0  1 1.6 0  1.2 1.6 0  1.4 1.6 0  1.6 1.6 0  1.8 1.6 0  2 1.6 0  -2 1.8 0  -1.8 1.8 0  -1.6 1.8 0  -1.4 1.8 0  -1.2 1.8 0  -1 1.8 0  -0.8 1.8 0  -0.6000000000000001 1.8 0  -0.3999999999999999 1.8 0  -0.2 1.8 0  0 1.8 0  0.2000000000000002 1.8 0  0.3999999999999999 1.8 0  0.6000000000000001 1.8 0  0.7999999999999998 1.8 0  1 1.8 0  1.2 1.8 0  1.4 1.8 0  1.6 1.8 0  1.8 1.8 0  2 1.8 0  -2 2 0  -1.8 2 0  -1.6 2 0  -1.4 2 0  -1.2 2 0  -1 2 0  -0.8 2 0  -0.6000000000000001 2 0  -0.3999999999999999 2 0  -0.2 2 0  0 2 0  0.2000000000000002 2 0  0.3999999999999999 2 0  0.6000000000000001 2 0  0.7999999999999998 2 0  1 2 0  1.2 2 0  1.4 2 0  1.6 2 0  1.8 2 0  2 2 0  </DataArray>
</Points>
<Cells>
[...]
<PointData  Scalars="f_8"> 
<DataArray  type="Float64"  Name="f_8"  format="ascii">3.2765193868549952e-01  3.2742765611299690e-01  3.2686922839793514e-01  3.2598574357542232e-01  3.2479619563786033e-01  3.2332823465406929e-01  3.2161703020149446e-01  3.1970413799919079e-01  3.1763631905428807e-01  3.1546429564665118e-01  3.1324144945536603e-01  3.1102247992667403e-01  3.0886204895164110e-01  3.0681344308446196e-01  3.0492728826710758e-01  3.0325035553052204e-01  3.0182450082636936e-01  3.0068579008652696e-01  2.9986387524323305e-01  2.9938171420137244e-01  2.9925577807075321e-01  3.2754878947560190e-01  3.2736958932665411e-01  3.2684037238505220e-01  3.2597658565111481e-01  3.2480083849264729e-01  3.2334283184351015e-01  3.2163889252537042e-01  3.1973122301938256e-01  3.1766693982825200e-01  3.1549695428884839e-01  3.1327473994265981e-01  3.1105502566742577e-01  3.0889245106968172e-01  3.0684021857759242e-01  3.0494877424121086e-01  3.0326454560924487e-01  3.0182875925191899e-01  3.0067635110654012e-01  2.9983496739267973e-01  2.9932402801403518e-01  2.9915378023638689e-01  3.2752270495087848e-01  3.2734686994548629e-01  3.2682389823712205e-01  3.2596713133386662e-01  3.2479814472469964e-01  3.2334614559894909e-01  3.2164723291517233e-01  3.1974350836344378e-01  3.1768204635104080e-01  3.1551374239255425e-01  3.1329206592900316e-01  3.1107174754221034e-01  3.0890743273638577e-01  3.0685233542662671e-01  3.0495692429372318e-01  3.0326767447618397e-01  3.0182591599032405e-01  3.0066680934206769e-01  2.9981847903538850e-01  2.9930133901870426e-01  2.9912765420287973e-01  3.2751317071480390e-01  3.2733798029742267e-01  3.2681674193896937e-01  3.2596240767089812e-01  3.2479617480033929e-01  3.2334693640940027e-01  3.2165054944921034e-01  3.1974893794465853e-01  3.1768905181301621e-01  3.1552170539714725e-01  3.1330032314801032e-01  3.1107962257694260e-01  3.0891426648109815e-01  3.0685751748011536e-01  3.0495992809835132e-01  3.0326809902427743e-01  3.0182353682923219e-01  3.0066164037297793e-01  2.9981084234333477e-01  2.9929192867959298e-01  2.9911755341449681e-01  3.2750951208722157e-01  3.2733453164148391e-01  3.2681390489808915e-01  3.2596049380384651e-01  3.2479537634653960e-01  3.2334731894335511e-01  3.2165205931210356e-01  3.1975141849590305e-01  3.1769226440238807e-01  3.1552535256256098e-01  3.1330407268005389e-01  3.1108313180099262e-01  3.0891720648874510e-01  3.0685959717030353e-01  3.0496091779514667e-01  3.0326785310030879e-01  3.0182201411157167e-01  3.0065892004530814e-01  2.9980713152847682e-01  2.9928755604958696e-01  2.9911294183461329e-01  3.2750830249566060e-01  3.2733340084010670e-01  3.2681300762450211e-01  3.2595995624475077e-01  3.2479528218605952e-01  3.2334770166836674e-01  3.2165290055557105e-01  3.1975265151469551e-01  3.1769378156037181e-01  3.1552701571236308e-01  3.1330572545891960e-01  3.1108461298898621e-01  3.0891836367479991e-01  3.0686030001236864e-01  3.0496107013862839e-01  3.0326740313858691e-01  3.0182096165145750e-01  3.0065731981975774e-01  2.9980509145837320e-01  2.9928522953301739e-01  2.9911051373716224e-01  3.2750816347170342e-01  3.2733329018831431e-01  3.2681298132588515e-01  3.2596005966834141e-01  3.2479554429034801e-01  3.2334813124012313e-01  3.2165348476290923e-01  3.1975335675161565e-01  3.1769455634345500e-01  3.1552779525205993e-01  3.1330643744956888e-01  3.1108518412313807e-01  3.0891872637228351e-01  3.0686039885244382e-01  3.0496086749049789e-01  3.0326688350395659e-01  3.0182013427154897e-01  3.0065621917313395e-01  2.9980377540453124e-01  2.9928377505917125e-01  2.9910901055067107e-01  3.2750849111104630e-01  3.2733362529769922e-01  3.2681333841870064e-01  3.2596044919151457e-01  3.2479597034254210e-01  3.2334859004759370e-01  3.2165396407645830e-01  3.1975383621796710e-01  3.1769500880267543e-01  3.1552818882798955e-01  3.1330673823585070e-01  3.1108535922333358e-01  3.0891874702736905e-01  3.0686024338124984e-01  3.0496052377767041e-01  3.0326635079605513e-01  3.0181942408605555e-01  3.0065535518872805e-01  2.9980279228431245e-01  2.9928271625918274e-01  2.9910792527687929e-01  3.2750901488599149e-01  3.2733414775131608e-01  3.2681385658000733e-01  3.2596095865917912e-01  3.2479646450000116e-01  3.2334905957939586e-01  3.2165439685978831e-01  3.1975421762050632e-01  3.1769532237386044e-01  3.1552841732991271e-01  3.1330686492583792e-01  3.1108536927482572e-01  3.0891862896037930e-01  3.0685999036899558e-01  3.0496013470213068e-01  3.0326583094197501e-01  3.0181878538967477e-01  3.0065461599305038e-01  2.9980197659503843e-01  2.9928185254140521e-01  2.9910704487800466e-01  3.2750961975545451e-01  3.2733474763576292e-01  3.2681444130860215e-01  3.2596151771346576e-01  3.2479698685550701e-01  3.2334953367190639e-01  3.2165481070707191e-01  3.1975455911188772e-01  3.1769557972022627e-01  3.1552857964757752e-01  3.1330692291106466e-01  3.1108531591316829e-01  3.0891846020746966e-01  3.0685970573756360e-01  3.0495973769412810e-01  3.0326532927445499e-01  3.0181819097792062e-01  3.0065394467328815e-01  2.9980124759044002e-01  2.9928108769716305e-01  2.9910626771193083e-01  3.2751026647868281e-01  3.2733538789161087e-01  3.2681506213756117e-01  3.2596210620670113e-01  3.2479753022998004e-01  3.2335001940813413e-01  3.2165522676349134e-01  3.1975489421963554e-01  3.1769582375108224e-01  3.1552872403703536e-01  3.1330696110911288e-01  3.1108524382834868e-01  3.0891827660586890e-01  3.0685941255802368e-01  3.0495934024427335e-01  3.0326483627893397e-01  3.0181761446005306e-01  3.0065329966331250e-01  2.9980055166676034e-01  2.9928036038023009e-01  2.9910552974243149e-01  3.2751094971978567e-01  3.2733606427245127e-01  3.2681571806318027e-01  3.2596272814563265e-01  3.2479810480574012e-01  3.2335053355466614e-01  3.2165566795751027e-01  3.1975525079250317e-01  3.1769608527175708e-01  3.1552888174695198e-01  3.1330700838066522e-01  3.1108517661192125e-01  3.0891809382678287e-01  3.0685911642475938e-01  3.0495893643300032e-01  3.0326433396651004e-01  3.0181702618771750e-01  3.0065264102548750e-01  2.9979984083265643e-01  2.9927961746913800e-01  2.9910477608544489e-01  3.2751166853235164e-01  3.2733677696772678e-01  3.2681641249688792e-01  3.2596339185067197e-01  3.2479872488640826e-01  3.2335109671106599e-01  3.2165616066721209e-01  3.1975565965764929e-01  3.1769639751995754e-01  3.1552908585556705e-01  3.1330709477816854e-01  3.1108513839839069e-01  3.0891792744914315e-01  3.0685882224176281e-01  3.0495851911020067e-01  3.0326380265237179e-01  3.0181639443778813e-01  3.0065192646109545e-01  2.9979906454232352e-01  2.9927880318289124e-01  2.9910394917233157e-01  3.2751239553718536e-01  3.2733750095842623e-01  3.2681712700710253e-01  3.2596408897055240e-01  3.2479939457908974e-01  3.2335172644533061e-01  3.2165673543128909e-01  3.1975616237560778e-01  3.1769680984850035e-01  3.1552938929948415e-01  3.1330727203028752e-01  3.1108517478650494e-01  3.0891781235922294e-01  3.0685855038428317e-01  3.0495809150477521e-01  3.0326322722479815e-01  3.0181568615238630e-01  3.0065110694850145e-01  2.9979816122643099e-01  2.9927784795701351e-01  2.9910297671927571e-01  3.2751303123810571e-01  3.2733814232982361e-01  3.2681778329268779e-01  3.2596476517918038e-01  3.2480008938488836e-01  3.2335243087946625e-01  3.2165743250689394e-01  3.1975682767839370e-01  3.1769741302725069e-01  3.1552989631013639e-01  3.1330764792702515e-01  3.1108538681275033e-01  3.0891783306926152e-01  3.0685836052122034e-01  3.0495768237223492e-01  3.0326260231881458e-01  3.0181486186764050e-01  3.0065011224069721e-01  2.9979703620011938e-01  2.9927664145226163e-01  2.9910174308257831e-01  3.2751331839922510e-01  3.2733845701663716e-01  3.2681817416668330e-01  3.2596526971503359e-01  3.2480072842894642e-01  3.2335320530414813e-01  3.2165832218117180e-01  3.1975779269087395e-01  3.1769839689803225e-01  3.1553083080184530e-01  3.1330845899489218e-01  3.1108600119876423e-01  3.0891818503121327e-01  3.0685839818485222e-01  3.0495737320111327e-01  3.0326193721579858e-01  3.0181385746417860e-01  3.0064881101186269e-01  2.9979550418441342e-01  2.9927496357414513e-01  2.9910001637718309e-01  3.2751265652367167e-01  3.2733787644219159e-01  3.2681781979941638e-01  3.2596525643457813e-01  3.2480112801218192e-01  3.2335403960011294e-01  3.2165956218771724e-01  3.1975936258886783e-01  3.1770018192410715e-01  3.1553268788410066e-01  3.1331022920025853e-01  3.1108752316597754e-01  3.0891930864843287e-01  3.0685899779778159e-01  3.0495735960139886e-01  3.0326126756655947e-01  3.0181254219051851e-01  3.0064691656538883e-01  2.9979315057071138e-01  2.9927231575976704e-01  2.9909726937876235e-01  3.2750965239129842e-01  3.2733509363725249e-01  3.2681564544361080e-01  3.2596398461415310e-01  3.2480093324442127e-01  3.2335497125240054e-01  3.2166155282379860e-01  3.1976224455977309e-01  3.1770370836211603e-01  3.1553655579267648e-01  3.1331410340089733e-01  3.1109106052049523e-01  3.0892218231846846e-01  3.0686092140210430e-01  3.0495811100796782e-01  3.0326071167983887e-01  3.0181065138844210e-01  3.0064378630671090e-01  2.9978900609005027e-01  2.9926750390931073e-01  2.9909222851954215e-01  3.2750084310385519e-01  3.2732696202090872e-01  3.2680924707300330e-01  3.2595998633507361e-01  3.2479963101895609e-01  3.2335635473026125e-01  3.2166537590641497e-01  3.1976808785939936e-01  3.1771103076716412e-01  3.1554473661696164e-01  3.1332247783627970e-01  3.1109895122581238e-01  3.0892892982185632e-01  3.0686591592406665e-01  3.0496082841957167e-01  3.0326075648416889e-01  3.0180780946361496e-01  3.0063808874127090e-01  2.9978080072098129e-01  2.9925751879161605e-01  2.9908158256173767e-01  3.2747553486193420e-01  3.2730508758671883e-01  3.2679355504918189e-01  3.2595120527969601e-01  3.2479749491844168e-01  3.2336011996550362e-01  3.2167407580727275e-01  3.1978065444791121e-01  3.1772635108554209e-01  3.1556167803717977e-01  3.1333989944135354e-01  3.1111570952401985e-01  3.0894388295259950e-01  3.0687792936513697e-01  3.0496878651123360e-01  3.0326358842169926e-01  3.0180454765897441e-01  3.0062799555578112e-01  2.9976363408132667e-01  2.9923407226828197e-01  2.9905475737610787e-01  3.2737369788726756e-01  3.2724762096493398e-01  3.2676489847073142e-01  3.2594203004628891e-01  3.2480201491304700e-01  3.2337455767275475e-01  3.2169578575528218e-01  3.1980762223008524e-01  3.1775690734784462e-01  3.1559433488974736e-01  3.1337325472524175e-01  3.1114838497926023e-01  3.0897447245399579e-01  3.0690493636211569e-01  3.0499052660432907e-01  3.0327802257401493e-01  3.0180899042367437e-01  3.0061860386619504e-01  2.9973451255500527e-01  2.9917570703882101e-01  2.9895126983016684e-01  </DataArray> 
</PointData> 
</Piece>
</UnstructuredGrid>
</VTKFile>