<?xml version="1.0"?>
<VTKFile type="UnstructuredGrid"  version="0.1"  >
<UnstructuredGrid>
<Piece  NumberOfPoints="441" NumberOfCells="800">
<Points>
<DataArray  type="Float64"  NumberOfComponents="3"  format="ascii">-2 -2 0  -1.8 -2 0  -1.6 -2 0  -1.4 -2 0  -1.2 -2 0  -1 -2 0  -0.8 -2 0  -0.6000000000000001 -2 0  -0.3999999999999999 -2 0  -0.2 -2 0  0 -2 0  0.2000000000000002 -2 0  0.3999999999999999 -2 0  0.6000000000000001 -2 0  0.7999999999999998 -2 0  1 -2 0  1.2 -2 0  1.4 -2 0  1.6 -2 0  1.8 -2 0  2 -2 0  -2 -1.8 0  -1.8 -1.8 0  -1.6 -1.8 0  -1.4 -1.8 0  -1.2 -1.8 0  -1 -1.8 0  -0.8 -1.8 0  -0.6000000000000001 -1.8 0  -0.3999999999999999 -1.8 0  -0.2 -1.8 0  0 -1.8 0  0.2000000000000002 -1.8 0  0.3999999999999999 -1.8 0  0.6000000000000001 -1.8 0  0.7999999999999998 -1.8 0  1 -1.8 0  1.2 -1.8 0  1.4 -1.8 0  1.6 -1.8 0  1.8 -1.8 0  2 -1.8 0  -2 -1.6 0  -1.8 -1.6 0  -1.6 -1.6 0  -1.4 -1.6 0  -1.2 -1.6 0  -1 -1.6 0  -0.8 -1.6 0  -0.6000000000000001 -1.6 0  -0.3999999999999999 -1.6 0  -0.2 -1.6 0  0 -1.6 0  0.2000000000000002 -1.6 0  0.3999999999999999 -1.6 0  0.6000000000000001 -1.6 0  0.7999999999999998 -1.6 0  1 -1.6 0  1.2 -1.6 0  1.4 -1.6 0  1.6 -1.6 0  1.8 -1.6 0  2 -1.6 0  -2 -1.4 0  -1.8 -1.4 0  -1.6 -1.4 0  -1.4 -1.4 0  -1.2 -1.4 0  -1 -1.4 0  -0.8 -1.4 0  -0.6000000000000001 -1.4 0  -0.3999999999999999 -1.4 0  -0.2 -1.4 0  0 -1.4 0  0.2000000000000002 -1.4 0  0.3999999999999999 -1.4 0  0.6000000000000001 -1.4 0  0.7999999999999998 -1.4 0  1 -1.4 0  1.2 -1.4 0  1.4 -1.4 0  1.6 -1.4 0  1.8 -1.4 0  2 -1.4 0  -2 -1.2 0  -1.8 -1.2 0  -1.6 -1.2 0  -1.4 -1.2 0  -1.2 -1.2 0  -1 -1.2 0  -0.8 -1.2 0  -0.6000000000000001 -1.2 0  -0.3999999999999999 -1.2 0  -0.2 -1.2 0  0 -1.2 0  0.2000000000000002 -1.2 0  0.3999999999999999 -1.2 0  0.6000000000000001 -1.2 0  0.7999999999999998 -1.2 0  1 -1.2 0  1.2 -1.2 0  1.4 -1.2 0  1.6 -1.2 0  1.8 -1.2 0  2 -1.2 0  -2 -1 0  -1.8 -1 0  -1.6 -1 0  -1.4 -1 0  -1.2 -1 0  -1 -1 0  -0.8 -1 0  -0.6000000000000001 -1 0  -0.3999999999999999 -1 0  -0.2 -1 0  0 -1 0  0.2000000000000002 -1 0  0.3999999999999999 -1 0  0.6000000000000001 -1 0  0.7999999999999998 -1 0  1 -1 0  1.2 -1 0  1.4 -1 0  1.6 -1 0  1.8 -1 0  2 -1 0  -2 -0.8 0  -1.8 -0.8 0  -1.6 -0.8 0  -1.4 -0.8 0  -1.2 -0.8 0  -1 -0.8 0  -0.8 -0.8 0  -0.6000000000000001 -0.8 0  -0.3999999999999999 -0.8 0  -0.2 -0.8 0  0 -0.8 0  0.2000000000000002 -0.8 0  0.3999999999999999 -0.8 0  0.6000000000000001 -0.8 0  0.7999999999999998 -0.8 0  1 -0.8 0  1.2 -0.8 0  1.4 -0.8 0  1.6 -0.8 0  1.8 -0.8 0  2 -0.8 0  -2 -0.6000000000000001 0  -1.8 -0.6000000000000001 0  -1.6 -0.6000000000000001 0  -1.4 -0.6000000000000001 0  -1.2 -0.6000000000000001 0  -1 -0.6000000000000001 0  -0.8 -0.6000000000000001 0  -0.6000000000000001 -0.6000000000000001 0  -0.3999999999999999 -0.6000000000000001 0  -0.2 -0.6000000000000001 0  0 -0.6000000000000001 0  0.2000000000000002 -0.6000000000000001 0  0.3999999999999999 -0.6000000000000001 0  0.6000000000000001 -0.6000000000000001 0  0.7999999999999998 -0.6000000000000001 0  1 -0.6000000000000001 0  1.2 -0.6000000000000001 0  1.4 -0.6000000000000001 0  1.6 -0.6000000000000001 0  1.8 -0.6000000000000001 0  2 -0.6000000000000001 0  -2 -0.3999999999999999 0  -1.8 -0.3999999999999999 0  -1.6 -0.3999999999999999 0  -1.4 -0.3999999999999999 0  -1.2 -0.3999999999999999 0  -1 -0.3999999999999999 0  -0.8 -0.3999999999999999 0  -0.6000000000000001 -0.3999999999999999 0  -0.3999999999999999 -0.3999999999999999 0  -0.2 -0.3999999999999999 0  0 -0.3999999999999999 0  0.2000000000000002 -0.3999999999999999 0  0.3999999999999999 -0.3999999999999999 0  0.6000000000000001 -0.3999999999999999 0  0.7999999999999998 -0.3999999999999999 0  1 -0.3999999999999999 0  1.2 -0.3999999999999999 0  1.4 -0.3999999999999999 0  1.6 -0.3999999999999999 0  1.8 -0.3999999999999999 0  2 -0.3999999999999999 0  -2 -0.2 0  -1.8 -0.2 0  -1.6 -0.2 0  -1.4 -0.2 0  -1.2 -0.2 0  -1 -0.2 0  -0.8 -0.2 0  -0.6000000000000001 -0.2 0  -0.3999999999999999 -0.2 0  -0.2 -0.2 0  0 -0.2 0  0.2000000000000002 -0.2 0  0.3999999999999999 -0.2 0  0.6000000000000001 -0.2 0  0.7999999999999998 -0.2 0  1 -0.2 0  1.2 -0.2 0  1.4 -0.2 0  1.6 -0.2 0  1.8 -0.2 0  2 -0.2 0  -2 0 0  -1.8 0 0  -1.6 0 0  -1.4 0 0  -1.2 0 0  -1 0 0  -0.8 0 0  -0.6000000000000001 0 0  -0.3999999999999999 0 0  -0.2 0 0  0 0 0  0.2000000000000002 0 0  0.3999999999999999 0 0  0.6000000000000001 0 0  0.7999999999999998 0 0  1 0 0  1.2 0 0  1.4 0 0  1.6 0 0  1.8 0 0  2 0 0  -2 0.2000000000000002 0  -1.8 0.2000000000000002 0  -1.6 0.2000000000000002 0  -1.4 0.2000000000000002 0  -1.2 0.2000000000000002 0  -1 0.2000000000000002 0  -0.8 0.2000000000000002 0  -0.6000000000000001 0.2000000000000002 0  -0.3999999999999999 0.2000000000000002 0  -0.2 0.2000000000000002 0  0 0.2000000000000002 0  0.2000000000000002 0.2000000000000002 0  0.3999999999999999 0.2000000000000002 0  0.6000000000000001 0.2000000000000002 0  0.7999999999999998 0.2000000000000002 0  1 0.2000000000000002 0  1.2 0.2000000000000002 0  1.4 0.2000000000000002 0  1.6 0.2000000000000002 0  1.8 0.2000000000000002 0  2 0.2000000000000002 0  -2 0.3999999999999999 0  -1.8 0.3999999999999999 0  -1.6 0.3999999999999999 0  -1.4 0.3999999999999999 0  -1.2 0.3999999999999999 0  -1 0.3999999999999999 0  -0.8 0.3999999999999999 0  -0.6000000000000001 0.3999999999999999 0  -0.3999999999999999 0.3999999999999999 0  -0.2 0.3999999999999999 0  0 0.3999999999999999 0  0.2000000000000002 0.3999999999999999 0  0.3999999999999999 0.3999999999999999 0  0.6000000000000001 0.3999999999999999 0  0.7999999999999998 0.3999999999999999 0  1 0.3999999999999999 0  1.2 0.3999999999999999 0  1.4 0.3999999999999999 0  1.6 0.3999999999999999 0  1.8 0.3999999999999999 0  2 0.3999999999999999 0  -2 0.6000000000000001 0  -1.8 0.6000000000000001 0  -1.6 0.6000000000000001 0  -1.4 0.6000000000000001 0  -1.2 0.6000000000000001 0  -1 0.6000000000000001 0  -0.8 0.6000000000000001 0  -0.6000000000000001 0.6000000000000001 0  -0.3999999999999999 0.6000000000000001 0  -0.2 0.6000000000000001 0  0 0.6000000000000001 0  0.2000000000000002 0.6000000000000001 0  0.3999999999999999 0.6000000000000001 0  0.6000000000000001 0.6000000000000001 0  0.7999999999999998 0.6000000000000001 0  1 0.6000000000000001 0  1.2 0.6000000000000001 0  1.4 0.6000000000000001 0  1.6 0.6000000000000001 0  1.8 0.6000000000000001 0  2 0.6000000000000001 0  -2 0.7999999999999998 0  -1.8 0.7999999999999998 0  -1.6 0.7999999999999998 0  -1.4 0.7999999999999998 0  -1.2 0.7999999999999998 0  -1 0.7999999999999998 0  -0.8 0.7999999999999998 0  -0.6000000000000001 0.7999999999999998 0  -0.3999999999999999 0.7999999999999998 0  -0.2 0.7999999999999998 0  0 0.7999999999999998 0  0.2000000000000002 0.7999999999999998 0  0.3999999999999999 0.7999999999999998 0  0.6000000000000001 0.7999999999999998 0  0.7999999999999998 0.7999999999999998 0  1 0.7999999999999998 0  1.2 0.7999999999999998 0  1.4 0.7999999999999998 0  1.6 0.7999999999999998 0  1.8 0.7999999999999998 0  2 0.7999999999999998 0  -2 1 0  -1.8 1 0  -1.6 1 0  -1.4 1 0  -1.2 1 0  -1 1 0  -0.8 1 0  -0.6000000000000001 1 0  -0.3999999999999999 1 0  -0.2 1 0  0 1 0  0.2000000000000002 1 0  0.3999999999999999 1 0  0.6000000000000001 1 0  0.7999999999999998 1 0  1 1 0  1.2 1 0  1.4 1 0  1.6 1 0  1.8 1 0  2 1 0  -2 1.2 0  -1.8 1.2 0  -1.6 1.2 0  -1.4 1.2 0  -1.2 1.2 0  -1 1.2 0  -0.8 1.2 0  -0.6000000000000001 1.2 0  -0.3999999999999999 1.2 0  -0.2 1.2 0  0 1.2 0  0.2000000000000002 1.2 0  0.3999999999999999 1.2 0  0.6000000000000001 1.2 0  0.7999999999999998 1.2 0  1 1.2 0  1.2 1.2 0  1.4 1.2 0  1.6 1.2 0  1.8 1.2 0  2 1.2 0  -2 1.4 0  -1.8 1.4 0  -1.6 1.4 0  -1.4 1.4 0  -1.2 1.4 0  -1 1.4 0  -0.8 1.4 0  -0.6000000000000001 1.4 0  -0.3999999999999999 1.4 0  -0.2 1.4 0  0 1.4 0  0.2000000000000002 1.4 0  0.3999999999999999 1.4 0  0.6000000000000001 1.4 0  0.7999999999999998 1.4 0  1 1.4 0  1.2 1.4 0  1.4 1.4 0  1.6 1.4 0  1.8 1.4 0  2 1.4 0  -2 1.6 0  -1.8 1.6 0  -1.6 1.6 0  -1.4 1.6 0  -1.2 1.6 0  -1 1.6 0  -0.8 1.6 0  -0.6000000000000001 1.6 0  -0.3999999999999999 1.6 0  -0.2 1.6 0  0 1.6 0  0.2000000000000002 1.6 0  0.3999999999999999 1.6 0  0.6000000000000001 1.6 0  0.7999999999999998 1.6 0  1 1.6 0  1.2 1.6 0  1.4 1.6 0  1.6 1.6 0  1.8 1.6 0  2 1.6 0  -2 1.8 0  -1.8 1.8 0  -1.6 1.8 0  -1.4 1.8 0  -1.2 1.8 0  -1 1.8 0  -0.8 1.8 0  -0.6000000000000001 1.8 0  -0.3999999999999999 1.8 0  -0.2 1.8 0  0 1.8 0  0.2000000000000002 1.8 0  0.3999999999999999 1.8 0  0.6000000000000001 1.8 0  0.7999999999999998 1.8 0  1 1.8 0  1.2 1.8 0  1.4 1.8 0  1.6 1.8 0  1.8 1.8 0  2 1.8 0  -2 2 0  -1.8 2 0  -1.6 2 0  -1.4 2 0  -1.2 2 0  -1 2 0  -0.8 2 0  -0.6000000000000001 2 0  -0.3999999999999999 2 0  -0.2 2 0  0 2 0  0.2000000000000002 2 0  0.3999999999999999 2 0  0.6000000000000001 2 0  0.7999999999999998 2 0  1 2 0  1.2 2 0  1.4 2 0  1.6 2 0  1.8 2 0  2 2 0  </DataArray>
</Points>
<Cells>
[...]
<PointData  Scalars="f_8"> 
<DataArray  type="Float64"  Name="f_8"  format="ascii">9.6708826684027901e-03  0.0000000000000000e+00  0.0000000000000000e+00  0.0000000000000000e+00  0.0000000000000000e+00  0.0000000000000000e+00  0.0000000000000000e+00  0.0000000000000000e+00  0.0000000000000000e+00  0.0000000000000000e+00  0.0000000000000000e+00  0.0000000000000000e+00  0.0000000000000000e+00  0.0000000000000000e+00  0.0000000000000000e+00  0.0000000000000000e+00  0.0000000000000000e+00  0.0000000000000000e+00  0.0000000000000000e+00  0.0000000000000000e+00  0.0000000000000000e+00  1.0147307578520977e-01  1.0056876741818319e-01  9.9009979853520877e-02  9.6783866427579579e-02  9.3895531256198789e-02  9.0373702975528949e-02  8.6264222061220336e-02  8.1624814824858810e-02  7.6520655187316933e-02  7.1020481001506972e-02  6.5193184404184118e-02  5.9104878031254492e-02  5.2816476841748693e-02  4.6381845006240388e-02  3.9846549422936757e-02  3.3247243159225615e-02  2.6611678638840577e-02  1.9959325553929090e-02  1.3302545297803055e-02  6.6482547522016301e-03  0.0000000000000000e+00  1.9182571720231598e-01  1.9093813188734030e-01  1.8851576102441925e-01  1.8462300993905983e-01  1.7934049262577628e-01  1.7276652519518590e-01  1.6501557935253036e-01  1.5621483383651708e-01  1.4649963093831347e-01  1.3600843232013585e-01  1.2487773759878212e-01  1.1323733772219793e-01  1.0120620034423337e-01  8.8889215117329501e-02  7.6374958633612766e-02  6.3734570859589251e-02  5.1021768365179271e-02  3.8273956187165940e-02  2.5514341541979429e-02  1.2754900129072188e-02  0.0000000000000000e+00  2.6761610264184255e-01  2.6648735203020513e-01  2.6323247114664822e-01  2.5791724128037219e-01  2.5064395323603694e-01  2.4154654411268042e-01  2.3078480504599508e-01  2.1853773137870830e-01  2.0499628469796843e-01  1.9035593405816587e-01  1.7480937753869319e-01  1.5853983544992659e-01  1.4171526565298062e-01  1.2448378862516922e-01  1.0697053239095870e-01  8.9276021605537215e-02  7.1476146545657260e-02  5.3623661399594534e-02  3.5751081116496206e-02  1.7874775425368351e-02  0.0000000000000000e+00  3.2556515930013419e-01  3.2424458191450439e-01  3.2034225738041178e-01  3.1393341347743864e-01  3.0513841423519417e-01  2.9411724159371877e-01  2.8106240216890832e-01  2.6619065215603660e-01  2.4973399154107814e-01  2.3193041516254401e-01  2.1301491500944189e-01  1.9321120425971411e-01  1.7272458162944881e-01  1.5173627957686583e-01  1.3039954798712508e-01  1.0883762281444813e-01  8.7143623293827591e-02  6.5382317685460142e-02  4.3593601139173523e-02  2.1797444221539744e-02  0.0000000000000000e+00  3.6614421242654566e-01  3.6468732212346766e-01  3.6032917206629611e-01  3.5315267553022711e-01  3.4329146570531277e-01  3.3092389156856661e-01  3.1626516084773532e-01  2.9955808862078231e-01  2.8106297923539009e-01  2.6104720595887654e-01  2.3977505527806831e-01  2.1749837189568427e-01  1.9444847952473451e-01  1.7082976683866319e-01  1.4681522395807639e-01  1.2254409979974781e-01  9.8121731581485183e-02  7.3621481298086128e-02  4.9088605666592323e-02  2.4545790390394326e-02  0.0000000000000000e+00  3.9220977000738605e-01  3.9066067902358381e-01  3.8600559638435711e-01  3.7833253548695533e-01  3.6778377414698649e-01  3.5454950048333284e-01  3.3885946308925519e-01  3.2097311125245181e-01  3.0116878918086792e-01  2.7973258977933380e-01  2.5694747723816713e-01  2.3308325499901628e-01  2.0838789045984465e-01  1.8308061590592256e-01  1.5734711371871005e-01  1.3133697060580943e-01  1.0516345801769070e-01  7.8905571057098667e-02  5.2612142041064465e-02  2.6307742259143011e-02  0.0000000000000000e+00  4.0757356168431436e-01  4.0596455547495641e-01  4.0112940312038714e-01  3.9315921662599662e-01  3.8220143576097348e-01  3.6845326158340957e-01  3.5215301533454574e-01  3.3356992426327575e-01  3.1299291821622105e-01  2.9071906500952133e-01  2.6704227726306434e-01  2.4224289002541385e-01  2.1657864122349046e-01  1.9027749182654641e-01  1.6353260703449993e-01  1.3649969179425728e-01  1.0929674143395336e-01  8.2006138458015035e-02  5.4678905807439414e-02  2.7340820171571127e-02  0.0000000000000000e+00  4.1583538214804200e-01  4.1418899422349759e-01  4.0925221621923158e-01  4.0111791416670761e-01  3.8993637232189249e-01  3.7590861142377879e-01  3.5927759134622328e-01  3.4031780829321762e-01  3.1932388085079216e-01  2.9659876459631795e-01  2.7244224006929352e-01  2.4714028521581782e-01  2.2095587506403705e-01  1.9412165457057323e-01  1.6683481285822430e-01  1.3925435661368821e-01  1.1150084531536929e-01  8.3658518643614913e-02  5.5779623264859718e-02  2.7890637297309829e-02  0.0000000000000000e+00  4.1972036382789479e-01  4.1805178289166239e-01  4.1306283443286923e-01  4.0484729241935868e-01  3.9355685025243836e-01  3.7939438410988602e-01  3.6260508208879555e-01  3.4346595334627350e-01  3.2227431641617854e-01  2.9933591177539759e-01  2.7495328900281263e-01  2.4941508500360809e-01  2.2298674091686249e-01  1.9590310773297692e-01  1.6836327194285644e-01  1.4052780096642456e-01  1.1251847182379798e-01  8.4420413017503651e-02  5.6286465326633679e-02  2.8143457344597923e-02  0.0000000000000000e+00  4.2085795036636425e-01  4.1917753295375060e-01  4.1416814975794869e-01  4.0592393467188892e-01  3.9459708092967855e-01  3.8039108776282815e-01  3.6355186767916464e-01  3.4435722973299820e-01  3.2310533936354224e-01  3.0010280141198847e-01  2.7565301823657656e-01  2.5004544091432179e-01  2.2354626251106591e-01  1.9639100457985406e-01  1.6877932905395682e-01  1.4087227580076800e-01  1.1279198947879196e-01  8.4623865512474555e-02  5.6420920425146175e-02  2.8210081633848853e-02  0.0000000000000000e+00  4.1978363952963071e-01  4.1809999909907464e-01  4.1309595432906959e-01  4.0486553845521306e-01  3.9356069883894085e-01  3.7938455895775480e-01  3.6258254607510171e-01  3.4343189875408042e-01  3.2223015339842598e-01  2.9928325493179997e-01  2.7489394201684347e-01  2.4935102335184711e-01  2.2292009272156396e-01  1.9583613287003215e-01  1.6829833953558559e-01  1.4046736539100005e-01  1.1246504733062894e-01  8.4376547045415223e-02  5.6254710566662099e-02  2.8126342611187939e-02  0.0000000000000000e+00  4.1596178423817692e-01  4.1428606286229164e-01  4.0931986124715408e-01  4.0115650451055246e-01  3.8994673324349827e-01  3.7589202299962127e-01  3.5923578686943214e-01  3.4025297104066965e-01  3.1923863759188498e-01  2.9649617432089925e-01  2.7232577664652002e-01  2.4701381301921968e-01  2.2082361696366737e-01  1.9398815205844827e-01  1.6670487840675324e-01  1.3913301865142585e-01  1.1139328643845113e-01  8.3570007875932842e-02  5.5715443354950878e-02  2.7856008216409975e-02  0.0000000000000000e+00  4.0775246252650760e-01  4.0610403051506871e-01  4.0122926118390700e-01  3.9321974511590130e-01  3.8222342144480020e-01  3.6843802447304536e-01  3.5210245055072398e-01  3.3348654594073596e-01  3.1287989923589876e-01  2.9058026660506736e-01  2.6688226325737191e-01  2.4206692149517703e-01  2.1639264864083343e-01  1.9008802306686004e-01  1.6334675096914048e-01  1.3632497843496308e-01  1.0914102072371101e-01  8.1877440799815862e-02  5.4585288296246197e-02  2.7290203260813526e-02  0.0000000000000000e+00  3.9240407428893215e-01  3.9081687474939264e-01  3.8612326711107825e-01  3.7841138028831550e-01  3.6782369514557151e-01  3.5455073079611338e-01  3.3882272146651138e-01  3.2089976782531149e-01  3.0106102621229103e-01  2.7959354203500775e-01  2.5678133836291211e-01  2.3289533885213115e-01  2.0818463946091520e-01  1.8286955181329634e-01  1.5713672968358414e-01  1.3113656664418147e-01  1.0498292510519948e-01  7.8755131813537826e-02  5.2502058402397626e-02  2.6248002617822171e-02  0.0000000000000000e+00  3.6627908410688143e-01  3.6480623407759444e-01  3.6043116210185283e-01  3.5323593324265851e-01  3.4335356296618336e-01  3.3096209836321305e-01  3.1627681683718339e-01  2.9954099803691508e-01  2.8101579652770292e-01  2.6096978160898643e-01  2.3966871496577782e-01  2.1736610731108352e-01  1.9429503514952931e-01  1.7066161356179579e-01  1.4664041708615397e-01  1.2237202557976674e-01  9.7962752557818486e-02  7.3486496534903634e-02  4.8988546984724629e-02  2.4491080206978478e-02  0.0000000000000000e+00  3.2553592520769375e-01  3.2424883572745361e-01  3.2037768103854319e-01  3.1399522049825562e-01  3.0521984519971779e-01  2.9421019370260793e-01  2.8115813748171092e-01  2.6628052952119019e-01  2.4981017042012599e-01  2.3198648445066450e-01  2.1304640633041344e-01  1.9321595696864827e-01  1.7270293568134196e-01  1.5169108217728311e-01  1.3033597013767464e-01  1.0876279212241866e-01  8.7066089425331353e-02  6.5311376381116809e-02  4.3538511610501172e-02  2.1766582819324223e-02  0.0000000000000000e+00  2.6732676772816261e-01  2.6630478741657454e-01  2.6315100940967412e-01  2.5792684737220128e-01  2.5073119676942557e-01  2.4169568904013242e-01  2.3097892363682226e-01  2.1875978318751041e-01  2.0523011272202515e-01  1.9058713409853434e-01  1.7502599980252348e-01  1.5873288241726982e-01  1.4187895784378760e-01  1.2461557982864875e-01  1.0707086749253135e-01  8.9347842688316428e-02  7.1524165942374304e-02  5.3653433544399803e-02  3.5767918306130290e-02  1.7882565916825525e-02  0.0000000000000000e+00  1.9125807947740406e-01  1.9055635307586366e-01  1.8830598971978244e-01  1.8456582323297097e-01  1.7941323743057755e-01  1.7294491969357595e-01  1.6527493062311774e-01  1.5653105840673892e-01  1.4685014690388037e-01  1.3637292830487954e-01  1.2523879305010466e-01  1.1358085779466111e-01  1.0152162902145688e-01  8.9169497341302167e-02  7.6616232936584233e-02  6.3935586412599166e-02  5.1183033473846867e-02  3.8396638927584464e-02  2.5598958226237888e-02  1.2799845670082965e-02  0.0000000000000000e+00  1.0077902097260365e-01  1.0011625806744304e-01  9.8761289353718779e-02  9.6698691145358215e-02  9.3940880739993848e-02  9.0521270134988022e-02  8.6488962237801295e-02  8.1904283072511658e-02  7.6834799677030594e-02  7.1351683635550278e-02  6.5526400257590933e-02  5.9427766423318602e-02  5.3119446263154145e-02  4.6657955926499316e-02  4.0091235223996893e-02  3.3457820820838743e-02  2.6786627164630979e-02  2.0097310489743975e-02  1.3401160087599312e-02  6.7024306553571120e-03  0.0000000000000000e+00  9.3172817523238093e-03  0.0000000000000000e+00  0.0000000000000000e+00  0.0000000000000000e+00  0.0000000000000000e+00  0.0000000000000000e+00  0.0000000000000000e+00  0.0000000000000000e+00  0.0000000000000000e+00  0.0000000000000000e+00  0.0000000000000000e+00  0.0000000000000000e+00  0.0000000000000000e+00  0.0000000000000000e+00  0.0000000000000000e+00  0.0000000000000000e+00  0.0000000000000000e+00  0.0000000000000000e+00  0.0000000000000000e+00  0.0000000000000000e+00  0.0000000000000000e+00  </DataArray> 
</PointData> 
</Piece>
</UnstructuredGrid>
</VTKFile>