<?xml version="1.0"?>
<VTKFile type="UnstructuredGrid"  version="0.1"  >
<UnstructuredGrid>
<Piece  NumberOfPoints="441" NumberOfCells="800">
<Points>
<DataArray  type="Float64"  NumberOfComponents="3"  format="ascii">-2 -2 0  -1.8 -2 0  -1.6 -2 0  -1.4 -2 0  -1.2 -2 0  -1 -2 0  -0.8 -2 0  -0.6000000000000001 -2 0  -0.3999999999999999 -2 0  -0.2 -2 0  0 -2 0  0.2000000000000002 -2 0  0.3999999999999999 -2 0  0.6000000000000001 -2 0  0.7999999999999998 -2 0  1 -2 0  1.2 -2 0  1.4 -2 0  1.6 -2 0  1.8 -2 0  2 -2 0  -2 -1.8 0  -1.8 -1.8 0  -1.6 -1.8 0  -1.4 -1.8 0  -1.2 -1.8 0  -1 -1.8 0  -0.8 -1.8 0  -0.6000000000000001 -1.8 0  -0.3999999999999999 -1.8 0  -0.2 -1.8 0  0 -1.8 0  0.2000000000000002 -1.8 0  0.3999999999999999 -1.8 0  0.6000000000000001 -1.8 0  0.7999999999999998 -1.8 0  1 -1.8 0  1.2 -1.8 0  1.4 -1.8 0  1.6 -1.8 0  1.8 -1.8 0  2 -1.8 0  -2 -1.6 0  -1.8 -1.6 0  -1.6 -1.6 0  -1.4 -1.6 0  -1.2 -1.6 0  -1 -1.6 0  -0.8 -1.6 0  -0.6000000000000001 -1.6 0  -0.3999999999999999 -1.6 0  -0.2 -1.6 0  0 -1.6 0  0.2000000000000002 -1.6 0  0.3999999999999999 -1.6 0  0.6000000000000001 -1.6 0  0.7999999999999998 -1.6 0  1 -1.6 0  1.2 -1.6 0  1.4 -1.6 0  1.6 -1.6 0  1.8 -1.6 0  2 -1.6 0  -2 -1.4 0  -1.8 -1.4 0  -1.6 -1.4 0  -1.4 -1.4 0  -1.2 -1.4 0  -1 -1.4 0  -0.8 -1.4 0  -0.6000000000000001 -1.4 0  -0.3999999999999999 -1.4 0  -0.2 -1.4 0  0 -1.4 0  0.2000000000000002 -1.4 0  0.3999999999999999 -1.4 0  0.6000000000000001 -1.4 0  0.7999999999999998 -1.4 0  1 -1.4 0  1.2 -1.4 0  1.4 -1.4 0  1.6 -1.4 0  1.8 -1.4 0  2 -1.4 0  -2 -1.2 0  -1.8 -1.2 0  -1.6 -1.2 0  -1.4 -1.2 0  -1.2 -1.2 0  -1 -1.2 0  -0.8 -1.2 0  -0.6000000000000001 -1.2 0  -0.3999999999999999 -1.2 0  -0.2 -1.2 0  0 -1.2 0  0.2000000000000002 -1.2 0  0.3999999999999999 -1.2 0  0.6000000000000001 -1.2 0  0.7999999999999998 -1.2 0  1 -1.2 0  1.2 -1.2 0  1.4 -1.2 0  1.6 -1.2 0  1.8 -1.2 0  2 -1.2 0  -2 -1 0  -1.8 -1 0  -1.6 -1 0  -1.4 -1 0  -1.2 -1 0  -1 -1 0  -0.8 -1 0  -0.6000000000000001 -1 0  -0.3999999999999999 -1 0  -0.2 -1 0  0 -1 0  0.2000000000000002 -1 0  0.3999999999999999 -1 0  0.6000000000000001 -1 0  0.7999999999999998 -1 0  1 -1 0  1.2 -1 0  1.4 -1 0  1.6 -1 0  1.8 -1 0  2 -1 0  -2 -0.8 0  -1.8 -0.8 0  -1.6 -0.8 0  -1.4 -0.8 0  -1.2 -0.8 0  -1 -0.8 0  -0.8 -0.8 0  -0.6000000000000001 -0.8 0  -0.3999999999999999 -0.8 0  -0.2 -0.8 0  0 -0.8 0  0.2000000000000002 -0.8 0  0.3999999999999999 -0.8 0  0.6000000000000001 -0.8 0  0.7999999999999998 -0.8 0  1 -0.8 0  1.2 -0.8 0  1.4 -0.8 0  1.6 -0.8 0  1.8 -0.8 0  2 -0.8 0  -2 -0.6000000000000001 0  -1.8 -0.6000000000000001 0  -1.6 -0.6000000000000001 0  -1.4 -0.6000000000000001 0  -1.2 -0.6000000000000001 0  -1 -0.6000000000000001 0  -0.8 -0.6000000000000001 0  -0.6000000000000001 -0.6000000000000001 0  -0.3999999999999999 -0.6000000000000001 0  -0.2 -0.6000000000000001 0  0 -0.6000000000000001 0  0.2000000000000002 -0.6000000000000001 0  0.3999999999999999 -0.6000000000000001 0  0.6000000000000001 -0.6000000000000001 0  0.7999999999999998 -0.6000000000000001 0  1 -0.6000000000000001 0  1.2 -0.6000000000000001 0  1.4 -0.6000000000000001 0  1.6 -0.6000000000000001 0  1.8 -0.6000000000000001 0  2 -0.6000000000000001 0  -2 -0.3999999999999999 0  -1.8 -0.3999999999999999 0  -1.6 -0.3999999999999999 0  -1.4 -0.3999999999999999 0  -1.2 -0.3999999999999999 0  -1 -0.3999999999999999 0  -0.8 -0.3999999999999999 0  -0.6000000000000001 -0.3999999999999999 0  -0.3999999999999999 -0.3999999999999999 0  -0.2 -0.3999999999999999 0  0 -0.3999999999999999 0  0.2000000000000002 -0.3999999999999999 0  0.3999999999999999 -0.3999999999999999 0  0.6000000000000001 -0.3999999999999999 0  0.7999999999999998 -0.3999999999999999 0  1 -0.3999999999999999 0  1.2 -0.3999999999999999 0  1.4 -0.3999999999999999 0  1.6 -0.3999999999999999 0  1.8 -0.3999999999999999 0  2 -0.3999999999999999 0  -2 -0.2 0  -1.8 -0.2 0  -1.6 -0.2 0  -1.4 -0.2 0  -1.2 -0.2 0  -1 -0.2 0  -0.8 -0.2 0  -0.6000000000000001 -0.2 0  -0.3999999999999999 -0.2 0  -0.2 -0.2 0  0 -0.2 0  0.2000000000000002 -0.2 0  0.3999999999999999 -0.2 0  0.6000000000000001 -0.2 0  0.7999999999999998 -0.2 0  1 -0.2 0  1.2 -0.2 0  1.4 -0.2 0  1.6 -0.2 0  1.8 -0.2 0  2 -0.2 0  -2 0 0  -1.8 0 0  -1.6 0 0  -1.4 0 0  -1.2 0 0  -1 0 0  -0.8 0 0  -0.6000000000000001 0 0  -0.3999999999999999 0 0  -0.2 0 0  0 0 0  0.2000000000000002 0 0  0.3999999999999999 0 0  0.6000000000000001 0 0  0.7999999999999998 0 0  1 0 0  1.2 0 0  1.4 0 0  1.6 0 0  1.8 0 0  2 0 0  -2 0.2000000000000002 0  -1.8 0.2000000000000002 0  -1.6 0.2000000000000002 0  -1.4 0.2000000000000002 0  -1.2 0.2000000000000002 0  -1 0.2000000000000002 0  -0.8 0.2000000000000002 0  -0.6000000000000001 0.2000000000000002 0  -0.3999999999999999 0.2000000000000002 0  -0.2 0.2000000000000002 0  0 0.2000000000000002 0  0.2000000000000002 0.2000000000000002 0  0.3999999999999999 0.2000000000000002 0  0.6000000000000001 0.2000000000000002 0  0.7999999999999998 0.2000000000000002 0  1 0.2000000000000002 0  1.2 0.2000000000000002 0  1.4 0.2000000000000002 0  1.6 0.2000000000000002 0  1.8 0.2000000000000002 0  2 0.2000000000000002 0  -2 0.3999999999999999 0  -1.8 0.3999999999999999 0  -1.6 0.3999999999999999 0  -1.4 0.3999999999999999 0  -1.2 0.3999999999999999 0  -1 0.3999999999999999 0  -0.8 0.3999999999999999 0  -0.6000000000000001 0.3999999999999999 0  -0.3999999999999999 0.3999999999999999 0  -0.2 0.3999999999999999 0  0 0.3999999999999999 0  0.2000000000000002 0.3999999999999999 0  0.3999999999999999 0.3999999999999999 0  0.6000000000000001 0.3999999999999999 0  0.7999999999999998 0.3999999999999999 0  1 0.3999999999999999 0  1.2 0.3999999999999999 0  1.4 0.3999999999999999 0  1.6 0.3999999999999999 0  1.8 0.3999999999999999 0  2 0.3999999999999999 0  -2 0.6000000000000001 0  -1.8 0.6000000000000001 0  -1.6 0.6000000000000001 0  -1.4 0.6000000000000001 0  -1.2 0.6000000000000001 0  -1 0.6000000000000001 0  -0.8 0.6000000000000001 0  -0.6000000000000001 0.6000000000000001 0  -0.3999999999999999 0.6000000000000001 0  -0.2 0.6000000000000001 0  0 0.6000000000000001 0  0.2000000000000002 0.6000000000000001 0  0.3999999999999999 0.6000000000000001 0  0.6000000000000001 0.6000000000000001 0  0.7999999999999998 0.6000000000000001 0  1 0.6000000000000001 0  1.2 0.6000000000000001 0  1.4 0.6000000000000001 0  1.6 0.6000000000000001 0  1.8 0.6000000000000001 0  2 0.6000000000000001 0  -2 0.7999999999999998 0  -1.8 0.7999999999999998 0  -1.6 0.7999999999999998 0  -1.4 0.7999999999999998 0  -1.2 0.7999999999999998 0  -1 0.7999999999999998 0  -0.8 0.7999999999999998 0  -0.6000000000000001 0.7999999999999998 0  -0.3999999999999999 0.7999999999999998 0  -0.2 0.7999999999999998 0  0 0.7999999999999998 0  0.2000000000000002 0.7999999999999998 0  0.3999999999999999 0.7999999999999998 0  0.6000000000000001 0.7999999999999998 0  0.7999999999999998 0.7999999999999998 0  1 0.7999999999999998 0  1.2 0.7999999999999998 0  1.4 0.7999999999999998 0  1.6 0.7999999999999998 0  1.8 0.7999999999999998 0  2 0.7999999999999998 0  -2 1 0  -1.8 1 0  -1.6 1 0  -1.4 1 0  -1.2 1 0  -1 1 0  -0.8 1 0  -0.6000000000000001 1 0  -0.3999999999999999 1 0  -0.2 1 0  0 1 0  0.2000000000000002 1 0  0.3999999999999999 1 0  0.6000000000000001 1 0  0.7999999999999998 1 0  1 1 0  1.2 1 0  1.4 1 0  1.6 1 0  1.8 1 0  2 1 0  -2 1.2 0  -1.8 1.2 0  -1.6 1.2 0  -1.4 1.2 0  -1.2 1.2 0  -1 1.2 0  -0.8 1.2 0  -0.6000000000000001 1.2 0  -0.3999999999999999 1.2 0  -0.2 1.2 0  0 1.2 0  0.2000000000000002 1.2 0  0.3999999999999999 1.2 0  0.6000000000000001 1.2 0  0.7999999999999998 1.2 0  1 1.2 0  1.2 1.2 0  1.4 1.2 0  1.6 1.2 0  1.8 1.2 0  2 1.2 0  -2 1.4 0  -1.8 1.4 0  -1.6 1.4 0  -1.4 1.4 0  -1.2 1.4 0  -1 1.4 0  -0.8 1.4 0  -0.6000000000000001 1.4 0  -0.3999999999999999 1.4 0  -0.2 1.4 0  0 1.4 0  0.2000000000000002 1.4 0  0.3999999999999999 1.4 0  0.6000000000000001 1.4 0  0.7999999999999998 1.4 0  1 1.4 0  1.2 1.4 0  1.4 1.4 0  1.6 1.4 0  1.8 1.4 0  2 1.4 0  -2 1.6 0  -1.8 1.6 0  -1.6 1.6 0  -1.4 1.6 0  -1.2 1.6 0  -1 1.6 0  -0.8 1.6 0  -0.6000000000000001 1.6 0  -0.3999999999999999 1.6 0  -0.2 1.6 0  0 1.6 0  0.2000000000000002 1.6 0  0.3999999999999999 1.6 0  0.6000000000000001 1.6 0  0.7999999999999998 1.6 0  1 1.6 0  1.2 1.6 0  1.4 1.6 0  1.6 1.6 0  1.8 1.6 0  2 1.6 0  -2 1.8 0  -1.8 1.8 0  -1.6 1.8 0  -1.4 1.8 0  -1.2 1.8 0  -1 1.8 0  -0.8 1.8 0  -0.6000000000000001 1.8 0  -0.3999999999999999 1.8 0  -0.2 1.8 0  0 1.8 0  0.2000000000000002 1.8 0  0.3999999999999999 1.8 0  0.6000000000000001 1.8 0  0.7999999999999998 1.8 0  1 1.8 0  1.2 1.8 0  1.4 1.8 0  1.6 1.8 0  1.8 1.8 0  2 1.8 0  -2 2 0  -1.8 2 0  -1.6 2 0  -1.4 2 0  -1.2 2 0  -1 2 0  -0.8 2 0  -0.6000000000000001 2 0  -0.3999999999999999 2 0  -0.2 2 0  0 2 0  0.2000000000000002 2 0  0.3999999999999999 2 0  0.6000000000000001 2 0  0.7999999999999998 2 0  1 2 0  1.2 2 0  1.4 2 0  1.6 2 0  1.8 2 0  2 2 0  </DataArray>
</Points>
<Cells>
[...]
<PointData  Scalars="f_8"> 
<DataArray  type="Float64"  Name="f_8"  format="ascii">7.1672155593864834e-02  7.0766575232294557e-02  6.8542781482023599e-02  6.5115002811272971e-02  6.0668266143105061e-02  5.5437633175556396e-02  4.9685278078470202e-02  4.3677647484510737e-02  3.7664966275566709e-02  3.1864943269949680e-02  2.6451847585904360e-02  2.1551339330511687e-02  1.7240702532753317e-02  1.3553560168841777e-02  1.0487813959755362e-02  8.0154540101863431e-03  6.0929891454066520e-03  4.6714943735661017e-03  3.7055864486280265e-03  3.1609631257996248e-03  3.0204449183143479e-03  7.1310353401311727e-02  7.0591743139748767e-02  6.8494594158226119e-02  6.5152126440347999e-02  6.0759894923227684e-02  5.5559392002704440e-02  4.9817520525172715e-02  4.3804937222220966e-02  3.7776000567035187e-02  3.1952489184657915e-02  2.6512478403699739e-02  2.1584908263825420e-02  1.7249585349818478e-02  1.3541744100605012e-02  1.0459913620651235e-02  7.9757027480655968e-03  6.0441918025980097e-03  4.6138353844031657e-03  3.6350553731058217e-03  3.0669591308198976e-03  2.8817913663012678e-03  7.1264752958292460e-02  7.0559896434040315e-02  6.8488130422414598e-02  6.5172023489645445e-02  6.0801310598145475e-02  5.5614686523414190e-02  4.9878276993211318e-02  4.3863345388526619e-02  3.7825755783362822e-02  3.1989274257390482e-02  2.6534079660067263e-02  2.1591029837143519e-02  1.7241443637778204e-02  1.3521534711694611e-02  1.0430241714376442e-02  7.9390569944945959e-03  6.0025297025425410e-03  4.5683447953456429e-03  3.5861795198411546e-03  3.0148432830938527e-03  2.8274667476066756e-03  7.1274860483533695e-02  7.0571886023936242e-02  6.8504765816113922e-02  6.5194153759137646e-02  6.0827961089098326e-02  5.5643582512493371e-02  4.9906506753722948e-02  4.3887992188360980e-02  3.7844398589161832e-02  3.2000306008610362e-02  2.6536831399861210e-02  2.1585720678456124e-02  1.7228999032810704e-02  1.3503327385184212e-02  1.0407811182880856e-02  7.9138569711708923e-03  5.9757411877649587e-03  4.5407794624804888e-03  3.5582845299205542e-03  2.9868023982923663e-03  2.7993639082605918e-03  7.1290982625398958e-02  7.0588205062777271e-02  6.8521427962634024e-02  6.5210970327933659e-02  6.0844358445555191e-02  5.5658689161464922e-02  4.9919324690527615e-02  4.3897593353145407e-02  3.7850096040512149e-02  3.2001765805906607e-02  2.6534110143121535e-02  2.1579231297268544e-02  1.7219420871549075e-02  1.3491484316747480e-02  1.0394543218153522e-02  7.8999076433531080e-03  5.9616766353440959e-03  4.5269474884033836e-03  3.5448144341201026e-03  2.9736398348958947e-03  2.7863297291111796e-03  7.1301405658036651e-02  7.0598548203300013e-02  6.8531426276723068e-02  6.5220314418322170e-02  6.0852695776515704e-02  5.5665653163722816e-02  4.9924583259068185e-02  4.3900902435022052e-02  3.7851343511304529e-02  3.2000994523516506e-02  2.6531515084119259e-02  2.1575132075628660e-02  1.7214216103810961e-02  1.3485597248722704e-02  1.0388368511364520e-02  7.8937676191723639e-03  5.9557923843647099e-03  4.5214269825170367e-03  3.5396568990898130e-03  2.9687536274001928e-03  2.7815599764121996e-03  7.1306120804626505e-02  7.0603186387965727e-02  6.8535807391850723e-02  6.5224262489007687e-02  6.0856048208360471e-02  5.5668273647935390e-02  4.9926376263194031e-02  4.3901825869304523e-02  3.7851416063628476e-02  3.2000295226456824e-02  2.6530174473760625e-02  2.1573316223011098e-02  1.7212106293856399e-02  1.3483368796950437e-02  1.0386172062687495e-02  7.8917154297755508e-03  5.9539508698777397e-03  4.5198155866112153e-03  3.5382523917457595e-03  2.9674984401844105e-03  2.7803731267570212e-03  7.1307696252663769e-02  7.0604722535216366e-02  6.8537232153798089e-02  6.5225509945096433e-02  6.0857063566557262e-02  5.5669017963760919e-02  4.9926830244716551e-02  4.3901991979917551e-02  3.7851318277961087e-02  3.1999976184796226e-02  2.6529690302904092e-02  2.1572729785306527e-02  1.7211479943726973e-02  1.3482757780266960e-02  1.0385619488362224e-02  7.8912493507319430e-03  5.9535835529511459e-03  4.5195446527070849e-03  3.5380632608377964e-03  2.9673674582153704e-03  2.7802708632803717e-03  7.1308068007630440e-02  7.0605079245533525e-02  6.8537554088673694e-02  6.5225780154360480e-02  6.0857269463416984e-02  5.5669152544710554e-02  4.9926892759588302e-02  4.3901987905791202e-02  3.7851258542213204e-02  3.1999875711167941e-02  2.6529566087697763e-02  2.1572598809482771e-02  1.7211357259520835e-02  1.3482655066202559e-02  1.0385544255919255e-02  7.8912048401385219e-03  5.9535692139037937e-03  4.5195570037224594e-03  3.5380968803046262e-03  2.9674158847613811e-03  2.7803272595046140e-03  7.1308118658166803e-02  7.0605125440894756e-02  6.8537592420825466e-02  6.5225808055395185e-02  6.0857285515184815e-02  5.5669156652174791e-02  4.9926886153071337e-02  4.3901972960733927e-02  3.7851238435722183e-02  3.1999853966556233e-02  2.6529546083177234e-02  2.1572583337324931e-02  1.7211348213038422e-02  1.3482653304888794e-02  1.0385549660454910e-02  7.8912165285578827e-03  5.9535858580907746e-03  4.5195771689388008e-03  3.5381193123908256e-03  2.9674396879551270e-03  2.7803519368844965e-03  7.1308116980213235e-02  7.0605122863200961e-02  6.8537588825570331e-02  6.5225803481373315e-02  6.0857280177562562e-02  5.5669150932697552e-02  4.9926880558494369e-02  4.3901968053587911e-02  3.7851234748000513e-02  3.1999851911909794e-02  2.6529545885152092e-02  2.1572584989122800e-02  1.7211351478334379e-02  1.3482657760700777e-02  1.0385554774062044e-02  7.8912217533204983e-03  5.9535907294732968e-03  4.5195813827214638e-03  3.5381227714174823e-03  2.9674425103568026e-03  2.7803544257946969e-03  7.1308108145053423e-02  7.0605114378056749e-02  6.8537580906534598e-02  6.5225796301397895e-02  6.0857273880634569e-02  5.5669145640201805e-02  4.9926876365775134e-02  4.3901965018284202e-02  3.7851232874703225e-02  3.1999851139257865e-02  2.6529546081180515e-02  2.1572585958560646e-02  1.7211352982235032e-02  1.3482659545246412e-02  1.0385556602658677e-02  7.8912234349660156e-03  5.9535921371299521e-03  4.5195824578065074e-03  3.5381235138617858e-03  2.9674429570907385e-03  2.7803546231712621e-03  7.1308099864627369e-02  7.0605107326406680e-02  6.8537573569586452e-02  6.5225787313500538e-02  6.0857262250440622e-02  5.5669130893667561e-02  4.9926858590340344e-02  4.3901944810240054e-02  3.7851211208864102e-02  3.1999829192657439e-02  2.6529525047694364e-02  2.1572566888075299e-02  1.7211336667527544e-02  1.3482646465329422e-02  1.0385546917077611e-02  7.8912170131240460e-03  5.9535886024910147e-03  4.5195812292395049e-03  3.5381238340923215e-03  2.9674439085844370e-03  2.7803551416023089e-03  7.1308228747165886e-02  7.0605234192791869e-02  6.8537684406420982e-02  6.5225870099440267e-02  6.0857308163259002e-02  5.5669135102347576e-02  4.9926820544460349e-02  4.3901868001716068e-02  3.7851102458095476e-02  3.1999697584891004e-02  2.6529380696195447e-02  2.1572419714616198e-02  1.7211195365129953e-02  1.3482517752216707e-02  1.0385435121494103e-02  7.8911239651169758e-03  5.9535137660335635e-03  4.5195219934144534e-03  3.5380758936758398e-03  2.9674016930869391e-03  2.7803122844863026e-03  7.1309182816533381e-02  7.0606161706386436e-02  6.8538522784850620e-02  6.5226564895436615e-02  6.0857817268945749e-02  5.5669432009282205e-02  4.9926896205929286e-02  4.3901730925170038e-02  3.7850776895241529e-02  3.1999220014808746e-02  2.6528795106626566e-02  2.1571772384411960e-02  1.7210529887337008e-02  1.3481870917977477e-02  1.0384834060317014e-02  7.8905846796772355e-03  5.9530409782529220e-03  4.5191100779617679e-03  3.5377106268000926e-03  2.9670625696572701e-03  2.7799752160708601e-03  7.1312936519282527e-02  7.0609814994677222e-02  6.8541895374195680e-02  6.5229492031621761e-02  6.0860159427647359e-02  5.5671085681308526e-02  4.9927803611641106e-02  4.3901886071972727e-02  3.7850225976273785e-02  3.1998055405924153e-02  2.6527143662389951e-02  2.1569779911778497e-02  1.7208344303336072e-02  1.3479626602443397e-02  1.0382639409759788e-02  7.8885140788383969e-03  5.9511315782859349e-03  4.5173630954701526e-03  3.5360964479081358e-03  2.9655287479687432e-03  2.7784564153731455e-03  7.1322900034797965e-02  7.0619579992481862e-02  6.8551145343507230e-02  6.5237891572677773e-02  6.0867365223686277e-02  5.5676778546433797e-02  4.9931730968867959e-02  4.3903901617682234e-02  3.7850315279674092e-02  3.1996340950796696e-02  2.6523868443538021e-02  2.1565273565084121e-02  1.7202978878133175e-02  1.3473770143914179e-02  1.0376614750258521e-02  7.8825682549587012e-03  5.9454188261905622e-03  4.5119420473617323e-03  3.5309403129777550e-03  2.9605459783347407e-03  2.7735185139456599e-03  7.1340888740568320e-02  7.0637551454507314e-02  6.8569070426163808e-02  6.5255430442109033e-02  6.0883862306234063e-02  5.5691374261170962e-02  4.9943532332527525e-02  4.3912156146567266e-02  3.7854546156112168e-02  3.1996419455731881e-02  2.6520017676167650e-02  2.1558012301106374e-02  1.7193024162455377e-02  1.3461921314502348e-02  1.0363640703588873e-02  7.8691153842177994e-03  5.9319509845643000e-03  4.4987176469800791e-03  3.5180261112582813e-03  2.9478621989633526e-03  2.7609050144215249e-03  7.1356665657402021e-02  7.0655145056157179e-02  6.8590820623326068e-02  6.5281770702949979e-02  6.0913540763040216e-02  5.5722023472508111e-02  4.9972326079867346e-02  4.3936402712008785e-02  3.7872133387351931e-02  3.2006073831743378e-02  2.6521376575882393e-02  2.1551536940214094e-02  1.7179799008348998e-02  1.3443393569211603e-02  1.0341351725878615e-02  7.8444674372664148e-03  5.9060410333233440e-03  4.4722583155061635e-03  3.4913637421051542e-03  2.9210909326937875e-03  2.7340550096570165e-03  7.1318896049217331e-02  7.0631862340414325e-02  6.8592413538735519e-02  6.5308592463674570e-02  6.0960477945959900e-02  5.5781378722446942e-02  5.0035760930576281e-02  4.3996273657920575e-02  3.7922357146777559e-02  3.2042582374202863e-02  2.6542210836430657e-02  2.1556643177997072e-02  1.7170610505551617e-02  1.3422290460445166e-02  1.0311089320730634e-02  7.8076511709673588e-03  5.8647117706435567e-03  4.4276465845564314e-03  3.4438912145156766e-03  2.8707648468016614e-03  2.6815534345418553e-03  7.0961755013755526e-02  7.0459008298234038e-02  6.8545273494986375e-02  6.5346959241685626e-02  6.1054158400312773e-02  5.5906176251160386e-02  5.0171862934319474e-02  4.4127843665937548e-02  3.8037582399548735e-02  3.2133730033995771e-02  2.6605461743931209e-02  2.1591627086909738e-02  1.7179669984540898e-02  1.3409555609918239e-02  1.0281455778480175e-02  7.7657249224869418e-03  5.8137213884586082e-03  4.3682280751425277e-03  3.3725140802271930e-03  2.7773631193323618e-03  2.5455930827986326e-03  </DataArray> 
</PointData> 
</Piece>
</UnstructuredGrid>
</VTKFile>