<?xml version="1.0"?>
<VTKFile type="UnstructuredGrid"  version="0.1"  >
<UnstructuredGrid>
<Piece  NumberOfPoints="441" NumberOfCells="800">
<Points>
<DataArray  type="Float64"  NumberOfComponents="3"  format="ascii">-2 -2 0  -1.8 -2 0  -1.6 -2 0  -1.4 -2 0  -1.2 -2 0  -1 -2 0  -0.8 -2 0  -0.6000000000000001 -2 0  -0.3999999999999999 -2 0  -0.2 -2 0  0 -2 0  0.2000000000000002 -2 0  0.3999999999999999 -2 0  0.6000000000000001 -2 0  0.7999999999999998 -2 0  1 -2 0  1.2 -2 0  1.4 -2 0  1.6 -2 0  1.8 -2 0  2 -2 0  -2 -1.8 0  -1.8 -1.8 0  -1.6 -1.8 0  -1.4 -1.8 0  -1.2 -1.8 0  -1 -1.8 0  -0.8 -1.8 0  -0.6000000000000001 -1.8 0  -0.3999999999999999 -1.8 0  -0.2 -1.8 0  0 -1.8 0  0.2000000000000002 -1.8 0  0.3999999999999999 -1.8 0  0.6000000000000001 -1.8 0  0.7999999999999998 -1.8 0  1 -1.8 0  1.2 -1.8 0  1.4 -1.8 0  1.6 -1.8 0  1.8 -1.8 0  2 -1.8 0  -2 -1.6 0  -1.8 -1.6 0  -1.6 -1.6 0  -1.4 -1.6 0  -1.2 -1.6 0  -1 -1.6 0  -0.8 -1.6 0  -0.6000000000000001 -1.6 0  -0.3999999999999999 -1.6 0  -0.2 -1.6 0  0 -1.6 0  0.2000000000000002 -1.6 0  0.3999999999999999 -1.6 0  0.6000000000000001 -1.6 0  0.7999999999999998 -1.6 0  1 -1.6 0  1.2 -1.6 0  1.4 -1.6 0  1.6 -1.6 0  1.8 -1.6 0  2 -1.6 0  -2 -1.4 0  -1.8 -1.4 0  -1.6 -1.4 0  -1.4 -1.4 0  -1.2 -1.4 0  -1 -1.4 0  -0.8 -1.4 0  -0.6000000000000001 -1.4 0  -0.3999999999999999 -1.4 0  -0.2 -1.4 0  0 -1.4 0  0.2000000000000002 -1.4 0  0.3999999999999999 -1.4 0  0.6000000000000001 -1.4 0  0.7999999999999998 -1.4 0  1 -1.4 0  1.2 -1.4 0  1.4 -1.4 0  1.6 -1.4 0  1.8 -1.4 0  2 -1.4 0  -2 -1.2 0  -1.8 -1.2 0  -1.6 -1.2 0  -1.4 -1.2 0  -1.2 -1.2 0  -1 -1.2 0  -0.8 -1.2 0  -0.6000000000000001 -1.2 0  -0.3999999999999999 -1.2 0  -0.2 -1.2 0  0 -1.2 0  0.2000000000000002 -1.2 0  0.3999999999999999 -1.2 0  0.6000000000000001 -1.2 0  0.7999999999999998 -1.2 0  1 -1.2 0  1.2 -1.2 0  1.4 -1.2 0  1.6 -1.2 0  1.8 -1.2 0  2 -1.2 0  -2 -1 0  -1.8 -1 0  -1.6 -1 0  -1.4 -1 0  -1.2 -1 0  -1 -1 0  -0.8 -1 0  -0.6000000000000001 -1 0  -0.3999999999999999 -1 0  -0.2 -1 0  0 -1 0  0.2000000000000002 -1 0  0.3999999999999999 -1 0  0.6000000000000001 -1 0  0.7999999999999998 -1 0  1 -1 0  1.2 -1 0  1.4 -1 0  1.6 -1 0  1.8 -1 0  2 -1 0  -2 -0.8 0  -1.8 -0.8 0  -1.6 -0.8 0  -1.4 -0.8 0  -1.2 -0.8 0  -1 -0.8 0  -0.8 -0.8 0  -0.6000000000000001 -0.8 0  -0.3999999999999999 -0.8 0  -0.2 -0.8 0  0 -0.8 0  0.2000000000000002 -0.8 0  0.3999999999999999 -0.8 0  0.6000000000000001 -0.8 0  0.7999999999999998 -0.8 0  1 -0.8 0  1.2 -0.8 0  1.4 -0.8 0  1.6 -0.8 0  1.8 -0.8 0  2 -0.8 0  -2 -0.6000000000000001 0  -1.8 -0.6000000000000001 0  -1.6 -0.6000000000000001 0  -1.4 -0.6000000000000001 0  -1.2 -0.6000000000000001 0  -1 -0.6000000000000001 0  -0.8 -0.6000000000000001 0  -0.6000000000000001 -0.6000000000000001 0  -0.3999999999999999 -0.6000000000000001 0  -0.2 -0.6000000000000001 0  0 -0.6000000000000001 0  0.2000000000000002 -0.6000000000000001 0  0.3999999999999999 -0.6000000000000001 0  0.6000000000000001 -0.6000000000000001 0  0.7999999999999998 -0.6000000000000001 0  1 -0.6000000000000001 0  1.2 -0.6000000000000001 0  1.4 -0.6000000000000001 0  1.6 -0.6000000000000001 0  1.8 -0.6000000000000001 0  2 -0.6000000000000001 0  -2 -0.3999999999999999 0  -1.8 -0.3999999999999999 0  -1.6 -0.3999999999999999 0  -1.4 -0.3999999999999999 0  -1.2 -0.3999999999999999 0  -1 -0.3999999999999999 0  -0.8 -0.3999999999999999 0  -0.6000000000000001 -0.3999999999999999 0  -0.3999999999999999 -0.3999999999999999 0  -0.2 -0.3999999999999999 0  0 -0.3999999999999999 0  0.2000000000000002 -0.3999999999999999 0  0.3999999999999999 -0.3999999999999999 0  0.6000000000000001 -0.3999999999999999 0  0.7999999999999998 -0.3999999999999999 0  1 -0.3999999999999999 0  1.2 -0.3999999999999999 0  1.4 -0.3999999999999999 0  1.6 -0.3999999999999999 0  1.8 -0.3999999999999999 0  2 -0.3999999999999999 0  -2 -0.2 0  -1.8 -0.2 0  -1.6 -0.2 0  -1.4 -0.2 0  -1.2 -0.2 0  -1 -0.2 0  -0.8 -0.2 0  -0.6000000000000001 -0.2 0  -0.3999999999999999 -0.2 0  -0.2 -0.2 0  0 -0.2 0  0.2000000000000002 -0.2 0  0.3999999999999999 -0.2 0  0.6000000000000001 -0.2 0  0.7999999999999998 -0.2 0  1 -0.2 0  1.2 -0.2 0  1.4 -0.2 0  1.6 -0.2 0  1.8 -0.2 0  2 -0.2 0  -2 0 0  -1.8 0 0  -1.6 0 0  -1.4 0 0  -1.2 0 0  -1 0 0  -0.8 0 0  -0.6000000000000001 0 0  -0.3999999999999999 0 0  -0.2 0 0  0 0 0  0.2000000000000002 0 0  0.3999999999999999 0 0  0.6000000000000001 0 0  0.7999999999999998 0 0  1 0 0  1.2 0 0  1.4 0 0  1.6 0 0  1.8 0 0  2 0 0  -2 0.2000000000000002 0  -1.8 0.2000000000000002 0  -1.6 0.2000000000000002 0  -1.4 0.2000000000000002 0  -1.2 0.2000000000000002 0  -1 0.2000000000000002 0  -0.8 0.2000000000000002 0  -0.6000000000000001 0.2000000000000002 0  -0.3999999999999999 0.2000000000000002 0  -0.2 0.2000000000000002 0  0 0.2000000000000002 0  0.2000000000000002 0.2000000000000002 0  0.3999999999999999 0.2000000000000002 0  0.6000000000000001 0.2000000000000002 0  0.7999999999999998 0.2000000000000002 0  1 0.2000000000000002 0  1.2 0.2000000000000002 0  1.4 0.2000000000000002 0  1.6 0.2000000000000002 0  1.8 0.2000000000000002 0  2 0.2000000000000002 0  -2 0.3999999999999999 0  -1.8 0.3999999999999999 0  -1.6 0.3999999999999999 0  -1.4 0.3999999999999999 0  -1.2 0.3999999999999999 0  -1 0.3999999999999999 0  -0.8 0.3999999999999999 0  -0.6000000000000001 0.3999999999999999 0  -0.3999999999999999 0.3999999999999999 0  -0.2 0.3999999999999999 0  0 0.3999999999999999 0  0.2000000000000002 0.3999999999999999 0  0.3999999999999999 0.3999999999999999 0  0.6000000000000001 0.3999999999999999 0  0.7999999999999998 0.3999999999999999 0  1 0.3999999999999999 0  1.2 0.3999999999999999 0  1.4 0.3999999999999999 0  1.6 0.3999999999999999 0  1.8 0.3999999999999999 0  2 0.3999999999999999 0  -2 0.6000000000000001 0  -1.8 0.6000000000000001 0  -1.6 0.6000000000000001 0  -1.4 0.6000000000000001 0  -1.2 0.6000000000000001 0  -1 0.6000000000000001 0  -0.8 0.6000000000000001 0  -0.6000000000000001 0.6000000000000001 0  -0.3999999999999999 0.6000000000000001 0  -0.2 0.6000000000000001 0  0 0.6000000000000001 0  0.2000000000000002 0.6000000000000001 0  0.3999999999999999 0.6000000000000001 0  0.6000000000000001 0.6000000000000001 0  0.7999999999999998 0.6000000000000001 0  1 0.6000000000000001 0  1.2 0.6000000000000001 0  1.4 0.6000000000000001 0  1.6 0.6000000000000001 0  1.8 0.6000000000000001 0  2 0.6000000000000001 0  -2 0.7999999999999998 0  -1.8 0.7999999999999998 0  -1.6 0.7999999999999998 0  -1.4 0.7999999999999998 0  -1.2 0.7999999999999998 0  -1 0.7999999999999998 0  -0.8 0.7999999999999998 0  -0.6000000000000001 0.7999999999999998 0  -0.3999999999999999 0.7999999999999998 0  -0.2 0.7999999999999998 0  0 0.7999999999999998 0  0.2000000000000002 0.7999999999999998 0  0.3999999999999999 0.7999999999999998 0  0.6000000000000001 0.7999999999999998 0  0.7999999999999998 0.7999999999999998 0  1 0.7999999999999998 0  1.2 0.7999999999999998 0  1.4 0.7999999999999998 0  1.6 0.7999999999999998 0  1.8 0.7999999999999998 0  2 0.7999999999999998 0  -2 1 0  -1.8 1 0  -1.6 1 0  -1.4 1 0  -1.2 1 0  -1 1 0  -0.8 1 0  -0.6000000000000001 1 0  -0.3999999999999999 1 0  -0.2 1 0  0 1 0  0.2000000000000002 1 0  0.3999999999999999 1 0  0.6000000000000001 1 0  0.7999999999999998 1 0  1 1 0  1.2 1 0  1.4 1 0  1.6 1 0  1.8 1 0  2 1 0  -2 1.2 0  -1.8 1.2 0  -1.6 1.2 0  -1.4 1.2 0  -1.2 1.2 0  -1 1.2 0  -0.8 1.2 0  -0.6000000000000001 1.2 0  -0.3999999999999999 1.2 0  -0.2 1.2 0  0 1.2 0  0.2000000000000002 1.2 0  0.3999999999999999 1.2 0  0.6000000000000001 1.2 0  0.7999999999999998 1.2 0  1 1.2 0  1.2 1.2 0  1.4 1.2 0  1.6 1.2 0  1.8 1.2 0  2 1.2 0  -2 1.4 0  -1.8 1.4 0  -1.6 1.4 0  -1.4 1.4 0  -1.2 1.4 0  -1 1.4 0  -0.8 1.4 0  -0.6000000000000001 1.4 0  -0.3999999999999999 1.4 0  -0.2 1.4 0  0 1.4 0  0.2000000000000002 1.4 0  0.3999999999999999 1.4 0  0.6000000000000001 1.4 0  0.7999999999999998 1.4 0  1 1.4 0  1.2 1.4 0  1.4 1.4 0  1.6 1.4 0  1.8 1.4 0  2 1.4 0  -2 1.6 0  -1.8 1.6 0  -1.6 1.6 0  -1.4 1.6 0  -1.2 1.6 0  -1 1.6 0  -0.8 1.6 0  -0.6000000000000001 1.6 0  -0.3999999999999999 1.6 0  -0.2 1.6 0  0 1.6 0  0.2000000000000002 1.6 0  0.3999999999999999 1.6 0  0.6000000000000001 1.6 0  0.7999999999999998 1.6 0  1 1.6 0  1.2 1.6 0  1.4 1.6 0  1.6 1.6 0  1.8 1.6 0  2 1.6 0  -2 1.8 0  -1.8 1.8 0  -1.6 1.8 0  -1.4 1.8 0  -1.2 1.8 0  -1 1.8 0  -0.8 1.8 0  -0.6000000000000001 1.8 0  -0.3999999999999999 1.8 0  -0.2 1.8 0  0 1.8 0  0.2000000000000002 1.8 0  0.3999999999999999 1.8 0  0.6000000000000001 1.8 0  0.7999999999999998 1.8 0  1 1.8 0  1.2 1.8 0  1.4 1.8 0  1.6 1.8 0  1.8 1.8 0  2 1.8 0  -2 2 0  -1.8 2 0  -1.6 2 0  -1.4 2 0  -1.2 2 0  -1 2 0  -0.8 2 0  -0.6000000000000001 2 0  -0.3999999999999999 2 0  -0.2 2 0  0 2 0  0.2000000000000002 2 0  0.3999999999999999 2 0  0.6000000000000001 2 0  0.7999999999999998 2 0  1 2 0  1.2 2 0  1.4 2 0  1.6 2 0  1.8 2 0  2 2 0  </DataArray>
</Points>
<Cells>
[...]
<PointData  Scalars="f_8"> 
<DataArray  type="Float64"  Name="f_8"  format="ascii">-1.7193604820477847e-13  -6.8992578274279358e-14  1.6857437951310404e-14  1.0433546440396842e-13  1.9663229075434335e-13  2.9044503504962713e-13  3.8056646817725946e-13  4.6197197853026310e-13  5.3065194185978535e-13  5.8387141539016666e-13  6.2018071613238503e-13  6.3931151586914742e-13  6.4201134005586104e-13  6.2984368015493149e-13  6.0497923510555131e-13  5.7001016317190290e-13  5.2782864004160049e-13  4.8162499260777664e-13  4.3508394943966870e-13  3.9289360528551828e-13  3.6172034992363488e-13  6.0529408048048708e-12  5.3388127807811475e-12  4.7849472850363671e-12  4.3412805703022545e-12  3.9703556327481608e-12  3.6444417755947743e-12  3.3440413144349103e-12  3.0567144596063412e-12  2.7758708520090949e-12  2.4994718296388772e-12  2.2287014491933576e-12  1.9666997846764751e-12  1.7174492659591858e-12  1.4848808942226456e-12  1.2722323679837538e-12  1.0816521992779941e-12  9.1400787307517823e-13  7.6882417610551935e-13  6.4425097810389626e-13  5.3694313413998672e-13  4.4174915728114009e-13  -1.6848846777357700e-11  -1.5348236648581387e-11  -1.4500809440272119e-11  -1.4130964532802883e-11  -1.4086570942100822e-11  -1.4236975606772914e-11  -1.4471643292367821e-11  -1.4699561251608703e-11  -1.4849188765142977e-11  -1.4868502731871105e-11  -1.4724654388311602e-11  -1.4402876962429348e-11  -1.3904497301368889e-11  -1.3244129218304641e-11  -1.2446302527353720e-11  -1.1541877144751553e-11  -1.0564602063845279e-11  -9.5481215488505647e-12  -8.5236328742234997e-12  -7.5182868361822743e-12  -6.5543064445406271e-12  -9.2620613596273801e-11  -8.1567784218928713e-11  -7.2388843330589950e-11  -6.4549032530850211e-11  -5.7590016739539419e-11  -5.1148394672722058e-11  -4.4965995072162489e-11  -3.8890869220701635e-11  -3.2869080229389350e-11  -2.6928552168136688e-11  -2.1157228190217530e-11  -1.5678421929977589e-11  -1.0626411905930327e-11  -6.1250087504446613e-12  -2.2711126804928791e-12  8.7565573415579228e-13  3.2971277936936902e-12  5.0152508920349609e-12  6.0864897147990727e-12  6.5934727358275662e-12  6.6353924005068099e-12  5.9231399349330158e-10  5.4048388947114966e-10  5.0403146749732463e-10  4.7951449417368369e-10  4.6385217803412359e-10  4.5427810156963427e-10  4.4831794061708804e-10  4.4379586130396888e-10  4.3886409484895296e-10  4.3204358307635911e-10  4.2226084522821462e-10  4.0886742458639187e-10  3.9163260621605388e-10  3.7070612598408112e-10  3.4655371021712539e-10  3.1987312890562996e-10  2.9150117846734725e-10  2.6232243320292672e-10  2.3318907283663439e-10  2.0485830971158541e-10  1.7795070409275834e-10  9.9274737864939648e-10  8.2626088561853269e-10  6.8757025999249153e-10  5.6752307177431652e-10  4.5829948475176485e-10  3.5363833833028478e-10  2.4902749823232263e-10  1.4182267820900253e-10  3.1257012076608981e-11  -8.1686984895010530e-11  -1.9455204678203792e-10  -3.0381146669590205e-10  -4.0536505853146437e-10  -4.9506851272403460e-10  -5.6923262441165519e-10  -6.2503459145698935e-10  -6.6079921238768168e-10  -6.7612912175841716e-10  -6.7188520305060360e-10  -6.5003671591162594e-10  -6.1341282132545437e-10  -1.5357058051159352e-08  -1.4089312039954240e-08  -1.3132357604287943e-08  -1.2431133560158945e-08  -1.1934182175355513e-08  -1.1592739614008548e-08  -1.1360134755240736e-08  -1.1191755182479592e-08  -1.1045678982293936e-08  -1.0883900866896247e-08  -1.0673933548962993e-08  -1.0390469020332738e-08  -1.0016757646933955e-08  -9.5454086194944021e-09  -8.9784197541005527e-09  -8.3263816222213655e-09  -7.6069386566859315e-09  -6.8426993195430111e-09  -6.0588497396021577e-09  -5.2807351541424595e-09  -4.5316387453368234e-09  -1.0363170828328007e-08  -6.7686616727014820e-09  -3.8917266708112512e-09  -1.5210880091891088e-09  5.2576559286099351e-10  2.4032637081348637e-09  4.2373597609221961e-09  6.1238033735388960e-09  8.1254880243077661e-09  1.0269807220629130e-08  1.2547216090943849e-08  1.4912138023179135e-08  1.7286995103758554e-08  1.9569567375801798e-08  2.1643240319252747e-08  2.3389136627080949e-08  2.4698774010506712e-08  2.5485812645649700e-08  2.5695648041175755e-08  2.5311996470163651e-08  2.4360100186297346e-08  3.8196753942554924e-07  3.5586267014788794e-07  3.3500767148849168e-07  3.1886186724919093e-07  3.0684491269371648e-07  2.9833816237205474e-07  2.9268109664522534e-07  2.8916712597837805e-07  2.8704372616137214e-07  2.8552140742918667e-07  2.8379449276221024e-07  2.8107433589285215e-07  2.7663291990507377e-07  2.6985232717905257e-07  2.6027391863255712e-07  2.4764059211739500e-07  2.3192631621875932e-07  2.1334905393488452e-07  1.9236573829236816e-07  1.6965054332590694e-07  1.4605974309905454e-07  4.7938231235161885e-07  3.5292798272384933e-07  2.5139445325250659e-07  1.7002742439034605e-07  1.0444522956301644e-07  5.0626621515328594e-08  4.8763849337709608e-09  -3.6200970080998020e-08  -7.5694460454709802e-08  -1.1633220587937827e-07  -1.6037804715997024e-07  -2.0949155549495537e-07  -2.6457488385037499e-07  -3.2563614235543877e-07  -3.9169898017821859e-07  -4.6078179467806567e-07  -5.2995881219369684e-07  -5.9550164433033130e-07  -6.5308681113735905e-07  -6.9804495545163601e-07  -7.2562301125969927e-07  -9.2105959953788037e-06  -8.9677302663190146e-06  -8.7491870860555238e-06  -8.5640217244816120e-06  -8.4179702629094428e-06  -8.3137535802280311e-06  -8.2514606547103247e-06  -8.2288913239808990e-06  -8.2417701120047769e-06  -8.2837919435565484e-06  -8.3465165028206169e-06  -8.4191784084410291e-06  -8.4885143122721792e-06  -8.5387180990576344e-06  -8.5516193529611142e-06  -8.5071416350505321e-06  -8.3840443184601292e-06  -8.1608962947382082e-06  -7.8171838358339660e-06  -7.3344280683900707e-06  -6.6971852338833505e-06  -3.6440570710987349e-05  -3.2525211840805529e-05  -2.9154893638380630e-05  -2.6314157613556937e-05  -2.3971790081752787e-05  -2.2082767547406255e-05  -2.0590457221071511e-05  -1.9428730385707777e-05  -1.8523741956440858e-05  -1.7795273810900756e-05  -1.7157698400382670e-05  -1.6520756086282211e-05  -1.5790423100635087e-05  -1.4870157705181657e-05  -1.3662747215052586e-05  -1.2072852361671841e-05  -1.0010186103495267e-05  -7.3931068908901704e-06  -4.1522861963639645e-06  -2.3405288497446671e-07  4.3969654068741317e-06  1.1074038166287973e-04  1.2769856191735475e-04  1.4235538874238275e-04  1.5483308134572101e-04  1.6530454977152164e-04  1.7398680301676967e-04  1.8113357811720904e-04  1.8702790099446107e-04  1.9197511450545906e-04  1.9629663196419508e-04  2.0032436267906057e-04  2.0439548607116621e-04  2.0884708974138900e-04  2.1401017556801918e-04  2.2020268136154123e-04  2.2772143099296306e-04  2.3683325112244802e-04  2.4776580183221645e-04  2.6069889070059706e-04  2.7575712576250957e-04  2.9300469461869874e-04  1.5984825361734731e-03  1.6410859932697928e-03  1.6782304848807527e-03  1.7102212845871490e-03  1.7374762106942500e-03  1.7605128459794177e-03  1.7799337308070308e-03  1.7964103871936329e-03  1.8106669337406541e-03  1.8234638075185240e-03  1.8355817836019251e-03  1.8478061730761474e-03  1.8609108843018315e-03  1.8756420168975522e-03  1.8927008358530903e-03  1.9127262976458758e-03  1.9362776794843741e-03  1.9638181894019425e-03  1.9957006198894327e-03  2.0321561076158466e-03  2.0732868880437112e-03  8.0744244367419414e-03  8.1406362165801389e-03  8.1991951678511109e-03  8.2504712952371356e-03  8.2949925867895815e-03  8.3334364042811845e-03  8.3666168224409438e-03  8.3954672922051353e-03  8.4210186731140529e-03  8.4443732439856770e-03  8.4666756596885034e-03  8.4890819928984361e-03  8.5127280645642626e-03  8.5386983056920471e-03  8.5679964352946072e-03  8.6015192457558967e-03  8.6400346699724590e-03  8.6841649795655115e-03  8.7343754111429764e-03  8.7909678342697334e-03  8.8540784781771572e-03  2.6654986466660081e-02  2.6705010959034978e-02  2.6751283323135783e-02  2.6793782928169210e-02  2.6832560526151284e-02  2.6867771031400735e-02  2.6899699412454479e-02  2.6928772963644453e-02  2.6955556828489869e-02  2.6980732990627192e-02  2.7005065539032612e-02  2.7029356742633258e-02  2.7054399426146104e-02  2.7080931460731691e-02  2.7109597944825630e-02  2.7140925821534458e-02  2.7175314146995016e-02  2.7213040884900855e-02  2.7254284002389318e-02  2.7299151151853510e-02  2.7347709196889759e-02  6.5449935311050117e-02  6.5416239169339099e-02  6.5392148670222666e-02  6.5376629405356060e-02  6.5368382764983371e-02  6.5366002300017323e-02  6.5368108717092602e-02  6.5373444555454990e-02  6.5380922173873590e-02  6.5389627572043224e-02  6.5398788266258348e-02  6.5407716767048388e-02  6.5415742929953655e-02  6.5422149101810420e-02  6.5426121800513520e-02  6.5426732561223472e-02  6.5422958148739455e-02  6.5413745877566237e-02  6.5398122421124735e-02  6.5375333477275629e-02  6.5344987174084893e-02  1.2617900678870253e-01  1.2603162079774913e-01  1.2591221028410760e-01  1.2581810392002971e-01  1.2574586842706020e-01  1.2569177297973122e-01  1.2565211638789905e-01  1.2562342059499138e-01  1.2560251353502969e-01  1.2558652781066251e-01  1.2557283962606489e-01  1.2555896944833669e-01  1.2554246372990335e-01  1.2552077629332198e-01  1.2549116880507438e-01  1.2545065209247336e-01  1.2539599356186124e-01  1.2532381962163108e-01  1.2523084296911827e-01  1.2511423585147033e-01  1.2497213575329437e-01  1.9672744341171122e-01  1.9653917453965578e-01  1.9639272684830822e-01  1.9628127866033132e-01  1.9619781279260096e-01  1.9613603270972915e-01  1.9609061403289271e-01  1.9605716421156946e-01  1.9603206836328813e-01  1.9601229999303377e-01  1.9599522615893661e-01  1.9597841349390749e-01  1.9595943163287324e-01  1.9593564767875973e-01  1.9590400681040837e-01  1.9586080027676747e-01  1.9580143621862284e-01  1.9572025908820467e-01  1.9561052624962097e-01  1.9546477729424730e-01  1.9527608294413162e-01  2.5305621616715873e-01  2.5298937075200550e-01  2.5297146655704700e-01  2.5297591533098190e-01  2.5298896768742152e-01  2.5300395721324426e-01  2.5301804223056912e-01  2.5303038041184822e-01  2.5304112692589270e-01  2.5305090373760847e-01  2.5306053243069188e-01  2.5307090367690532e-01  2.5308289956019692e-01  2.5309730379058587e-01  2.5311463458327887e-01  2.5313481444342051e-01  2.5315654240227259e-01  2.5317614012305295e-01  2.5318547106683292e-01  2.5316822211014212e-01  2.5309328254339308e-01  2.7307946529357818e-01  2.7362117482028142e-01  2.7399035877542732e-01  2.7424432682279104e-01  2.7442028885311603e-01  2.7454300829523359e-01  2.7462939662090591e-01  2.7469132823418063e-01  2.7473742066011214e-01  2.7477421510252265e-01  2.7480701376958055e-01  2.7484052965147199e-01  2.7487945164287403e-01  2.7492900693028144e-01  2.7499560648171467e-01  2.7508768866181610e-01  2.7521693850472512e-01  2.7540017448064119e-01  2.7566239561929617e-01  2.7604183243016495e-01  2.7659845666518157e-01  </DataArray> 
</PointData> 
</Piece>
</UnstructuredGrid>
</VTKFile>