<?xml version="1.0"?>
<VTKFile type="UnstructuredGrid"  version="0.1"  >
<UnstructuredGrid>
<Piece  NumberOfPoints="441" NumberOfCells="800">
<Points>
<DataArray  type="Float64"  NumberOfComponents="3"  format="ascii">-2 -2 0  -1.8 -2 0  -1.6 -2 0  -1.4 -2 0  -1.2 -2 0  -1 -2 0  -0.8 -2 0  -0.6000000000000001 -2 0  -0.3999999999999999 -2 0  -0.2 -2 0  0 -2 0  0.2000000000000002 -2 0  0.3999999999999999 -2 0  0.6000000000000001 -2 0  0.7999999999999998 -2 0  1 -2 0  1.2 -2 0  1.4 -2 0  1.6 -2 0  1.8 -2 0  2 -2 0  -2 -1.8 0  -1.8 -1.8 0  -1.6 -1.8 0  -1.4 -1.8 0  -1.2 -1.8 0  -1 -1.8 0  -0.8 -1.8 0  -0.6000000000000001 -1.8 0  -0.3999999999999999 -1.8 0  -0.2 -1.8 0  0 -1.8 0  0.2000000000000002 -1.8 0  0.3999999999999999 -1.8 0  0.6000000000000001 -1.8 0  0.7999999999999998 -1.8 0  1 -1.8 0  1.2 -1.8 0  1.4 -1.8 0  1.6 -1.8 0  1.8 -1.8 0  2 -1.8 0  -2 -1.6 0  -1.8 -1.6 0  -1.6 -1.6 0  -1.4 -1.6 0  -1.2 -1.6 0  -1 -1.6 0  -0.8 -1.6 0  -0.6000000000000001 -1.6 0  -0.3999999999999999 -1.6 0  -0.2 -1.6 0  0 -1.6 0  0.2000000000000002 -1.6 0  0.3999999999999999 -1.6 0  0.6000000000000001 -1.6 0  0.7999999999999998 -1.6 0  1 -1.6 0  1.2 -1.6 0  1.4 -1.6 0  1.6 -1.6 0  1.8 -1.6 0  2 -1.6 0  -2 -1.4 0  -1.8 -1.4 0  -1.6 -1.4 0  -1.4 -1.4 0  -1.2 -1.4 0  -1 -1.4 0  -0.8 -1.4 0  -0.6000000000000001 -1.4 0  -0.3999999999999999 -1.4 0  -0.2 -1.4 0  0 -1.4 0  0.2000000000000002 -1.4 0  0.3999999999999999 -1.4 0  0.6000000000000001 -1.4 0  0.7999999999999998 -1.4 0  1 -1.4 0  1.2 -1.4 0  1.4 -1.4 0  1.6 -1.4 0  1.8 -1.4 0  2 -1.4 0  -2 -1.2 0  -1.8 -1.2 0  -1.6 -1.2 0  -1.4 -1.2 0  -1.2 -1.2 0  -1 -1.2 0  -0.8 -1.2 0  -0.6000000000000001 -1.2 0  -0.3999999999999999 -1.2 0  -0.2 -1.2 0  0 -1.2 0  0.2000000000000002 -1.2 0  0.3999999999999999 -1.2 0  0.6000000000000001 -1.2 0  0.7999999999999998 -1.2 0  1 -1.2 0  1.2 -1.2 0  1.4 -1.2 0  1.6 -1.2 0  1.8 -1.2 0  2 -1.2 0  -2 -1 0  -1.8 -1 0  -1.6 -1 0  -1.4 -1 0  -1.2 -1 0  -1 -1 0  -0.8 -1 0  -0.6000000000000001 -1 0  -0.3999999999999999 -1 0  -0.2 -1 0  0 -1 0  0.2000000000000002 -1 0  0.3999999999999999 -1 0  0.6000000000000001 -1 0  0.7999999999999998 -1 0  1 -1 0  1.2 -1 0  1.4 -1 0  1.6 -1 0  1.8 -1 0  2 -1 0  -2 -0.8 0  -1.8 -0.8 0  -1.6 -0.8 0  -1.4 -0.8 0  -1.2 -0.8 0  -1 -0.8 0  -0.8 -0.8 0  -0.6000000000000001 -0.8 0  -0.3999999999999999 -0.8 0  -0.2 -0.8 0  0 -0.8 0  0.2000000000000002 -0.8 0  0.3999999999999999 -0.8 0  0.6000000000000001 -0.8 0  0.7999999999999998 -0.8 0  1 -0.8 0  1.2 -0.8 0  1.4 -0.8 0  1.6 -0.8 0  1.8 -0.8 0  2 -0.8 0  -2 -0.6000000000000001 0  -1.8 -0.6000000000000001 0  -1.6 -0.6000000000000001 0  -1.4 -0.6000000000000001 0  -1.2 -0.6000000000000001 0  -1 -0.6000000000000001 0  -0.8 -0.6000000000000001 0  -0.6000000000000001 -0.6000000000000001 0  -0.3999999999999999 -0.6000000000000001 0  -0.2 -0.6000000000000001 0  0 -0.6000000000000001 0  0.2000000000000002 -0.6000000000000001 0  0.3999999999999999 -0.6000000000000001 0  0.6000000000000001 -0.6000000000000001 0  0.7999999999999998 -0.6000000000000001 0  1 -0.6000000000000001 0  1.2 -0.6000000000000001 0  1.4 -0.6000000000000001 0  1.6 -0.6000000000000001 0  1.8 -0.6000000000000001 0  2 -0.6000000000000001 0  -2 -0.3999999999999999 0  -1.8 -0.3999999999999999 0  -1.6 -0.3999999999999999 0  -1.4 -0.3999999999999999 0  -1.2 -0.3999999999999999 0  -1 -0.3999999999999999 0  -0.8 -0.3999999999999999 0  -0.6000000000000001 -0.3999999999999999 0  -0.3999999999999999 -0.3999999999999999 0  -0.2 -0.3999999999999999 0  0 -0.3999999999999999 0  0.2000000000000002 -0.3999999999999999 0  0.3999999999999999 -0.3999999999999999 0  0.6000000000000001 -0.3999999999999999 0  0.7999999999999998 -0.3999999999999999 0  1 -0.3999999999999999 0  1.2 -0.3999999999999999 0  1.4 -0.3999999999999999 0  1.6 -0.3999999999999999 0  1.8 -0.3999999999999999 0  2 -0.3999999999999999 0  -2 -0.2 0  -1.8 -0.2 0  -1.6 -0.2 0  -1.4 -0.2 0  -1.2 -0.2 0  -1 -0.2 0  -0.8 -0.2 0  -0.6000000000000001 -0.2 0  -0.3999999999999999 -0.2 0  -0.2 -0.2 0  0 -0.2 0  0.2000000000000002 -0.2 0  0.3999999999999999 -0.2 0  0.6000000000000001 -0.2 0  0.7999999999999998 -0.2 0  1 -0.2 0  1.2 -0.2 0  1.4 -0.2 0  1.6 -0.2 0  1.8 -0.2 0  2 -0.2 0  -2 0 0  -1.8 0 0  -1.6 0 0  -1.4 0 0  -1.2 0 0  -1 0 0  -0.8 0 0  -0.6000000000000001 0 0  -0.3999999999999999 0 0  -0.2 0 0  0 0 0  0.2000000000000002 0 0  0.3999999999999999 0 0  0.6000000000000001 0 0  0.7999999999999998 0 0  1 0 0  1.2 0 0  1.4 0 0  1.6 0 0  1.8 0 0  2 0 0  -2 0.2000000000000002 0  -1.8 0.2000000000000002 0  -1.6 0.2000000000000002 0  -1.4 0.2000000000000002 0  -1.2 0.2000000000000002 0  -1 0.2000000000000002 0  -0.8 0.2000000000000002 0  -0.6000000000000001 0.2000000000000002 0  -0.3999999999999999 0.2000000000000002 0  -0.2 0.2000000000000002 0  0 0.2000000000000002 0  0.2000000000000002 0.2000000000000002 0  0.3999999999999999 0.2000000000000002 0  0.6000000000000001 0.2000000000000002 0  0.7999999999999998 0.2000000000000002 0  1 0.2000000000000002 0  1.2 0.2000000000000002 0  1.4 0.2000000000000002 0  1.6 0.2000000000000002 0  1.8 0.2000000000000002 0  2 0.2000000000000002 0  -2 0.3999999999999999 0  -1.8 0.3999999999999999 0  -1.6 0.3999999999999999 0  -1.4 0.3999999999999999 0  -1.2 0.3999999999999999 0  -1 0.3999999999999999 0  -0.8 0.3999999999999999 0  -0.6000000000000001 0.3999999999999999 0  -0.3999999999999999 0.3999999999999999 0  -0.2 0.3999999999999999 0  0 0.3999999999999999 0  0.2000000000000002 0.3999999999999999 0  0.3999999999999999 0.3999999999999999 0  0.6000000000000001 0.3999999999999999 0  0.7999999999999998 0.3999999999999999 0  1 0.3999999999999999 0  1.2 0.3999999999999999 0  1.4 0.3999999999999999 0  1.6 0.3999999999999999 0  1.8 0.3999999999999999 0  2 0.3999999999999999 0  -2 0.6000000000000001 0  -1.8 0.6000000000000001 0  -1.6 0.6000000000000001 0  -1.4 0.6000000000000001 0  -1.2 0.6000000000000001 0  -1 0.6000000000000001 0  -0.8 0.6000000000000001 0  -0.6000000000000001 0.6000000000000001 0  -0.3999999999999999 0.6000000000000001 0  -0.2 0.6000000000000001 0  0 0.6000000000000001 0  0.2000000000000002 0.6000000000000001 0  0.3999999999999999 0.6000000000000001 0  0.6000000000000001 0.6000000000000001 0  0.7999999999999998 0.6000000000000001 0  1 0.6000000000000001 0  1.2 0.6000000000000001 0  1.4 0.6000000000000001 0  1.6 0.6000000000000001 0  1.8 0.6000000000000001 0  2 0.6000000000000001 0  -2 0.7999999999999998 0  -1.8 0.7999999999999998 0  -1.6 0.7999999999999998 0  -1.4 0.7999999999999998 0  -1.2 0.7999999999999998 0  -1 0.7999999999999998 0  -0.8 0.7999999999999998 0  -0.6000000000000001 0.7999999999999998 0  -0.3999999999999999 0.7999999999999998 0  -0.2 0.7999999999999998 0  0 0.7999999999999998 0  0.2000000000000002 0.7999999999999998 0  0.3999999999999999 0.7999999999999998 0  0.6000000000000001 0.7999999999999998 0  0.7999999999999998 0.7999999999999998 0  1 0.7999999999999998 0  1.2 0.7999999999999998 0  1.4 0.7999999999999998 0  1.6 0.7999999999999998 0  1.8 0.7999999999999998 0  2 0.7999999999999998 0  -2 1 0  -1.8 1 0  -1.6 1 0  -1.4 1 0  -1.2 1 0  -1 1 0  -0.8 1 0  -0.6000000000000001 1 0  -0.3999999999999999 1 0  -0.2 1 0  0 1 0  0.2000000000000002 1 0  0.3999999999999999 1 0  0.6000000000000001 1 0  0.7999999999999998 1 0  1 1 0  1.2 1 0  1.4 1 0  1.6 1 0  1.8 1 0  2 1 0  -2 1.2 0  -1.8 1.2 0  -1.6 1.2 0  -1.4 1.2 0  -1.2 1.2 0  -1 1.2 0  -0.8 1.2 0  -0.6000000000000001 1.2 0  -0.3999999999999999 1.2 0  -0.2 1.2 0  0 1.2 0  0.2000000000000002 1.2 0  0.3999999999999999 1.2 0  0.6000000000000001 1.2 0  0.7999999999999998 1.2 0  1 1.2 0  1.2 1.2 0  1.4 1.2 0  1.6 1.2 0  1.8 1.2 0  2 1.2 0  -2 1.4 0  -1.8 1.4 0  -1.6 1.4 0  -1.4 1.4 0  -1.2 1.4 0  -1 1.4 0  -0.8 1.4 0  -0.6000000000000001 1.4 0  -0.3999999999999999 1.4 0  -0.2 1.4 0  0 1.4 0  0.2000000000000002 1.4 0  0.3999999999999999 1.4 0  0.6000000000000001 1.4 0  0.7999999999999998 1.4 0  1 1.4 0  1.2 1.4 0  1.4 1.4 0  1.6 1.4 0  1.8 1.4 0  2 1.4 0  -2 1.6 0  -1.8 1.6 0  -1.6 1.6 0  -1.4 1.6 0  -1.2 1.6 0  -1 1.6 0  -0.8 1.6 0  -0.6000000000000001 1.6 0  -0.3999999999999999 1.6 0  -0.2 1.6 0  0 1.6 0  0.2000000000000002 1.6 0  0.3999999999999999 1.6 0  0.6000000000000001 1.6 0  0.7999999999999998 1.6 0  1 1.6 0  1.2 1.6 0  1.4 1.6 0  1.6 1.6 0  1.8 1.6 0  2 1.6 0  -2 1.8 0  -1.8 1.8 0  -1.6 1.8 0  -1.4 1.8 0  -1.2 1.8 0  -1 1.8 0  -0.8 1.8 0  -0.6000000000000001 1.8 0  -0.3999999999999999 1.8 0  -0.2 1.8 0  0 1.8 0  0.2000000000000002 1.8 0  0.3999999999999999 1.8 0  0.6000000000000001 1.8 0  0.7999999999999998 1.8 0  1 1.8 0  1.2 1.8 0  1.4 1.8 0  1.6 1.8 0  1.8 1.8 0  2 1.8 0  -2 2 0  -1.8 2 0  -1.6 2 0  -1.4 2 0  -1.2 2 0  -1 2 0  -0.8 2 0  -0.6000000000000001 2 0  -0.3999999999999999 2 0  -0.2 2 0  0 2 0  0.2000000000000002 2 0  0.3999999999999999 2 0  0.6000000000000001 2 0  0.7999999999999998 2 0  1 2 0  1.2 2 0  1.4 2 0  1.6 2 0  1.8 2 0  2 2 0  </DataArray>
</Points>
<Cells>
[...]
<PointData  Scalars="f_8"> 
<DataArray  type="Float64"  Name="f_8"  format="ascii">3.7499151192972986e-02  3.7500531919710298e-02  3.7501108289600800e-02  3.7501407913934560e-02  3.7501586910258643e-02  3.7501702375636138e-02  3.7501780186363076e-02  3.7501834357628216e-02  3.7501873589787890e-02  3.7501903926607738e-02  3.7501930054190086e-02  3.7501956074460344e-02  3.7501986088700187e-02  3.7502024780051324e-02  3.7502078183215472e-02  3.7502154973989260e-02  3.7502269104414308e-02  3.7502446291557634e-02  3.7502743250675832e-02  3.7503315413800004e-02  3.7504691333425925e-02  3.7509156407188493e-02  3.7509475510175340e-02  3.7509783722635442e-02  3.7510002521450328e-02  3.7510151153689254e-02  3.7510252455251240e-02  3.7510322410983475e-02  3.7510371630889439e-02  3.7510407397515579e-02  3.7510435040555311e-02  3.7510458807621244e-02  3.7510482462498822e-02  3.7510509768191834e-02  3.7510544969305282e-02  3.7510593388240879e-02  3.7510662292697602e-02  3.7510762268479901e-02  3.7510909280939253e-02  3.7511126236619785e-02  3.7511432839883452e-02  3.7511751725774860e-02  3.7535090539458617e-02  3.7535126182270555e-02  3.7535242241964653e-02  3.7535357365833771e-02  3.7535449905386514e-02  3.7535518952365066e-02  3.7535568941617990e-02  3.7535604852443408e-02  3.7535631034686733e-02  3.7535651123885537e-02  3.7535668241287748e-02  3.7535685249592429e-02  3.7535705012322000e-02  3.7535730653508674e-02  3.7535765814892541e-02  3.7535814860619826e-02  3.7535882805781774e-02  3.7535974176571701e-02  3.7536088282904841e-02  3.7536203910921821e-02  3.7536240268157592e-02  3.7576501460866718e-02  3.7576436723672120e-02  3.7576442090746356e-02  3.7576474160468790e-02  3.7576510295034178e-02  3.7576541592498340e-02  3.7576565812167083e-02  3.7576583453527844e-02  3.7576595967911193e-02  3.7576605042422634e-02  3.7576612364628809e-02  3.7576619587890298e-02  3.7576628368538409e-02  3.7576640404018834e-02  3.7576657401609530e-02  3.7576680850468669e-02  3.7576711319533315e-02  3.7576746691773570e-02  3.7576778267900270e-02  3.7576783683834748e-02  3.7576719770970587e-02  3.7632211695368567e-02  3.7632097332012261e-02  3.7632036983196185e-02  3.7632009227509873e-02  3.7631997959769486e-02  3.7631993666848454e-02  3.7631991503488421e-02  3.7631989336793847e-02  3.7631986450184431e-02  3.7631982812427058e-02  3.7631978698984103e-02  3.7631974501175572e-02  3.7631970614884318e-02  3.7631967330322258e-02  3.7631964644555899e-02  3.7631961888905434e-02  3.7631957006594066e-02  3.7631945265250814e-02  3.7631917300778660e-02  3.7631857164842138e-02  3.7631743530795840e-02  3.7700623851425648e-02  3.7700478448199889e-02  3.7700376345848691e-02  3.7700306545605133e-02  3.7700258479145883e-02  3.7700224174358997e-02  3.7700198289267031e-02  3.7700177446883136e-02  3.7700159547172964e-02  3.7700143250372103e-02  3.7700127630194598e-02  3.7700111941884502e-02  3.7700095445814139e-02  3.7700077231896202e-02  3.7700055990010244e-02  3.7700029666775228e-02  3.7699994952369212e-02  3.7699946592808856e-02  3.7699876716162671e-02  3.7699774842473291e-02  3.7699630012615455e-02  3.7779832567957812e-02  3.7779665968318984e-02  3.7779536319787914e-02  3.7779437465041525e-02  3.7779362381566782e-02  3.7779304771744862e-02  3.7779259597530160e-02  3.7779223027181230e-02  3.7779192167943218e-02  3.7779164773722632e-02  3.7779138992667452e-02  3.7779113159372955e-02  3.7779085613138759e-02  3.7779054516717606e-02  3.7779017649830646e-02  3.7778972158279051e-02  3.7778914262088306e-02  3.7778838985404121e-02  3.7778740094479242e-02  3.7778610616536652e-02  3.7778444411580805e-02  3.7867695350758339e-02  3.7867514707028468e-02  3.7867367327380275e-02  3.7867249362133572e-02  3.7867155864725617e-02  3.7867081805503737e-02  3.7867022621545059e-02  3.7866974394424498e-02  3.7866933814820522e-02  3.7866898053131731e-02  3.7866864601165014e-02  3.7866831111535645e-02  3.7866795240414100e-02  3.7866754490517407e-02  3.7866706051085865e-02  3.7866646639975000e-02  3.7866572373594795e-02  3.7866478728533680e-02  3.7866360713035119e-02  3.7866213407657313e-02  3.7866032970356546e-02  3.7961895631110888e-02  3.7961707139772594e-02  3.7961549803721864e-02  3.7961420895769066e-02  3.7961316622896708e-02  3.7961232778070390e-02  3.7961165200349180e-02  3.7961110017496011e-02  3.7961063720874606e-02  3.7961023134620527e-02  3.7960985327138583e-02  3.7960947495145059e-02  3.7960906837326905e-02  3.7960860428107424e-02  3.7960805101911139e-02  3.7960737364702644e-02  3.7960653362533042e-02  3.7960548954587267e-02  3.7960419952412616e-02  3.7960262575602179e-02  3.7960074099817706e-02  3.8060005165230316e-02  3.8059814596796665e-02  3.8059654061017967e-02  3.8059521349221512e-02  3.8059413247006249e-02  3.8059326001328012e-02  3.8059255706865705e-02  3.8059198556972235e-02  3.8059150963524385e-02  3.8059109575932198e-02  3.8059071233356161e-02  3.8059032878469845e-02  3.8058991454131115e-02  3.8058943800099380e-02  3.8058886566914869e-02  3.8058816168237641e-02  3.8058728799875173e-02  3.8058620559415085e-02  3.8058487696627424e-02  3.8058326998986626e-02  3.8058136257862953e-02  3.8159546636842324e-02  3.8159359485893170e-02  3.8159201941371144e-02  3.8159071949958365e-02  3.8158966480425903e-02  3.8158881933601070e-02  3.8158814501161410e-02  3.8158760414397030e-02  3.8158716075279632e-02  3.8158678090188684e-02  3.8158643235187202e-02  3.8158608379901170e-02  3.8158570392329727e-02  3.8158526043659234e-02  3.8158471932211870e-02  3.8158404449023735e-02  3.8158319812359474e-02  3.8158214200298066e-02  3.8158084001758678e-02  3.8157926177796751e-02  3.8157738673137549e-02  3.8258055679574368e-02  3.8257877188252180e-02  3.8257728479277692e-02  3.8257607361621156e-02  3.8257510651142121e-02  3.8257434631209855e-02  3.8257375434143773e-02  3.8257329289445453e-02  3.8257292642566047e-02  3.8257262173651746e-02  3.8257234749699658e-02  3.8257207338133328e-02  3.8257176903070164e-02  3.8257140301506676e-02  3.8257094196777711e-02  3.8257035010961608e-02  3.8256958944897855e-02  3.8256862100010718e-02  3.8256740731770170e-02  3.8256591637679090e-02  3.8256412622887252e-02  3.8353141071085860e-02  3.8352976224094136e-02  3.8352842001989330e-02  3.8352735730117660e-02  3.8352653694905425e-02  3.8352591775935890e-02  3.8352545894145787e-02  3.8352512249935085e-02  3.8352487397857342e-02  3.8352468217105966e-02  3.8352451824235072e-02  3.8352435457701083e-02  3.8352416351286188e-02  3.8352391607259576e-02  3.8352358080310942e-02  3.8352312289906078e-02  3.8352250391754425e-02  3.8352168256409545e-02  3.8352061715673506e-02  3.8351927023082474e-02  3.8351761497428812e-02  3.8442541732046788e-02  3.8442395285370787e-02  3.8442281216221771e-02  3.8442195811448553e-02  3.8442134300981257e-02  3.8442091822591555e-02  3.8442063951163050e-02  3.8442046875003626e-02  3.8442037366807076e-02  3.8442032661470137e-02  3.8442030302933194e-02  3.8442027986190723e-02  3.8442023400732044e-02  3.8442014073433027e-02  3.8441997209081286e-02  3.8441969535408606e-02  3.8441927180204616e-02  3.8441865645355872e-02  3.8441779993766696e-02  3.8441665399140075e-02  3.8441518135489731e-02  3.8524179150279010e-02  3.8524055780337935e-02  3.8523967955504002e-02  3.8523909863225618e-02  3.8523874854377985e-02  3.8523856929765052e-02  3.8523851254955360e-02  3.8523854125415202e-02  3.8523862725056951e-02  3.8523874854380476e-02  3.8523888690454366e-02  3.8523902584880157e-02  3.8523914883710556e-02  3.8523923746486104e-02  3.8523926941580744e-02  3.8523921602096736e-02  3.8523903949642016e-02  3.8523869051701971e-02  3.8523810796163675e-02  3.8523722436329844e-02  3.8523598129126500e-02  3.8596203822168301e-02  3.8596108609146522e-02  3.8596054439851556e-02  3.8596031181162921e-02  3.8596029023189926e-02  3.8596040482243438e-02  3.8596060471026671e-02  3.8596085716768543e-02  3.8596114142132154e-02  3.8596144391168270e-02  3.8596175503746138e-02  3.8596206691133735e-02  3.8596237159968530e-02  3.8596265935133503e-02  3.8596291631809942e-02  3.8596312123349824e-02  3.8596324057370665e-02  3.8596322225803614e-02  3.8596298981408136e-02  3.8596244341170260e-02  3.8596148089316863e-02  3.8657034056330086e-02  3.8656973987440620e-02  3.8656964203627617e-02  3.8656985446695435e-02  3.8657023046875183e-02  3.8657068169935555e-02  3.8657116177455417e-02  3.8657164910958691e-02  3.8657213535734210e-02  3.8657261876215508e-02  3.8657310061245738e-02  3.8657358335481895e-02  3.8657406940748359e-02  3.8657455996436420e-02  3.8657505307522225e-02  3.8657554002276225e-02  3.8657599852750003e-02  3.8657638093033950e-02  3.8657659671851405e-02  3.8657649615369244e-02  3.8657588430730479e-02  3.8705384338980256e-02  3.8705373390022481e-02  3.8705426493137782e-02  3.8705505472125465e-02  3.8705589988701321e-02  3.8705671718006047e-02  3.8705748274147342e-02  3.8705819789140401e-02  3.8705887324439643e-02  3.8705952215550968e-02  3.8706015839924231e-02  3.8706079563519860e-02  3.8706144751622262e-02  3.8706212779318842e-02  3.8706284976543770e-02  3.8706362391153347e-02  3.8706445119747614e-02  3.8706530683347645e-02  3.8706610526785860e-02  3.8706663826828455e-02  3.8706651752272961e-02  3.8740275655835890e-02  3.8740354092113460e-02  3.8740505514734624e-02  3.8740659460959836e-02  3.8740796283833465e-02  3.8740914387844994e-02  3.8741017050806043e-02  3.8741108224295363e-02  3.8741191452476592e-02  3.8741269748063627e-02  3.8741345729162296e-02  3.8741421813338082e-02  3.8741500419085237e-02  3.8741584167789098e-02  3.8741676079242858e-02  3.8741779710393970e-02  3.8741899030440688e-02  3.8742037320986120e-02  3.8742192882613186e-02  3.8742345522459837e-02  3.8742423130443418e-02  3.8760999428610457e-02  3.8761315293970200e-02  3.8761629593092442e-02  3.8761872948366777e-02  3.8762059427011740e-02  3.8762207176902340e-02  3.8762329128474889e-02  3.8762433958454308e-02  3.8762527681760812e-02  3.8762614744386026e-02  3.8762698721533123e-02  3.8762782799343996e-02  3.8762870165183178e-02  3.8762964398785009e-02  3.8763069957025026e-02  3.8763192879053290e-02  3.8763341894607256e-02  3.8763530048300868e-02  3.8763775705365724e-02  3.8764093053479283e-02  3.8764409960493344e-02  3.8766912116539563e-02  3.8768094057039716e-02  3.8768629777428051e-02  3.8768941077131781e-02  3.8769153794406347e-02  3.8769314280592986e-02  3.8769443671353231e-02  3.8769553486778477e-02  3.8769650931836749e-02  3.8769741054169679e-02  3.8769827799188999e-02  3.8769914638334901e-02  3.8770005043464610e-02  3.8770102961790447e-02  3.8770213445945466e-02  3.8770343712737680e-02  3.8770505308386681e-02  3.8770719430142320e-02  3.8771032628357793e-02  3.8771571730761616e-02  3.8772764740985483e-02  </DataArray> 
</PointData> 
</Piece>
</UnstructuredGrid>
</VTKFile>