<?xml version="1.0"?>
<VTKFile type="UnstructuredGrid"  version="0.1"  >
<UnstructuredGrid>
<Piece  NumberOfPoints="441" NumberOfCells="800">
<Points>
<DataArray  type="Float64"  NumberOfComponents="3"  format="ascii">-2 -2 0  -1.8 -2 0  -1.6 -2 0  -1.4 -2 0  -1.2 -2 0  -1 -2 0  -0.8 -2 0  -0.6000000000000001 -2 0  -0.3999999999999999 -2 0  -0.2 -2 0  0 -2 0  0.2000000000000002 -2 0  0.3999999999999999 -2 0  0.6000000000000001 -2 0  0.7999999999999998 -2 0  1 -2 0  1.2 -2 0  1.4 -2 0  1.6 -2 0  1.8 -2 0  2 -2 0  -2 -1.8 0  -1.8 -1.8 0  -1.6 -1.8 0  -1.4 -1.8 0  -1.2 -1.8 0  -1 -1.8 0  -0.8 -1.8 0  -0.6000000000000001 -1.8 0  -0.3999999999999999 -1.8 0  -0.2 -1.8 0  0 -1.8 0  0.2000000000000002 -1.8 0  0.3999999999999999 -1.8 0  0.6000000000000001 -1.8 0  0.7999999999999998 -1.8 0  1 -1.8 0  1.2 -1.8 0  1.4 -1.8 0  1.6 -1.8 0  1.8 -1.8 0  2 -1.8 0  -2 -1.6 0  -1.8 -1.6 0  -1.6 -1.6 0  -1.4 -1.6 0  -1.2 -1.6 0  -1 -1.6 0  -0.8 -1.6 0  -0.6000000000000001 -1.6 0  -0.3999999999999999 -1.6 0  -0.2 -1.6 0  0 -1.6 0  0.2000000000000002 -1.6 0  0.3999999999999999 -1.6 0  0.6000000000000001 -1.6 0  0.7999999999999998 -1.6 0  1 -1.6 0  1.2 -1.6 0  1.4 -1.6 0  1.6 -1.6 0  1.8 -1.6 0  2 -1.6 0  -2 -1.4 0  -1.8 -1.4 0  -1.6 -1.4 0  -1.4 -1.4 0  -1.2 -1.4 0  -1 -1.4 0  -0.8 -1.4 0  -0.6000000000000001 -1.4 0  -0.3999999999999999 -1.4 0  -0.2 -1.4 0  0 -1.4 0  0.2000000000000002 -1.4 0  0.3999999999999999 -1.4 0  0.6000000000000001 -1.4 0  0.7999999999999998 -1.4 0  1 -1.4 0  1.2 -1.4 0  1.4 -1.4 0  1.6 -1.4 0  1.8 -1.4 0  2 -1.4 0  -2 -1.2 0  -1.8 -1.2 0  -1.6 -1.2 0  -1.4 -1.2 0  -1.2 -1.2 0  -1 -1.2 0  -0.8 -1.2 0  -0.6000000000000001 -1.2 0  -0.3999999999999999 -1.2 0  -0.2 -1.2 0  0 -1.2 0  0.2000000000000002 -1.2 0  0.3999999999999999 -1.2 0  0.6000000000000001 -1.2 0  0.7999999999999998 -1.2 0  1 -1.2 0  1.2 -1.2 0  1.4 -1.2 0  1.6 -1.2 0  1.8 -1.2 0  2 -1.2 0  -2 -1 0  -1.8 -1 0  -1.6 -1 0  -1.4 -1 0  -1.2 -1 0  -1 -1 0  -0.8 -1 0  -0.6000000000000001 -1 0  -0.3999999999999999 -1 0  -0.2 -1 0  0 -1 0  0.2000000000000002 -1 0  0.3999999999999999 -1 0  0.6000000000000001 -1 0  0.7999999999999998 -1 0  1 -1 0  1.2 -1 0  1.4 -1 0  1.6 -1 0  1.8 -1 0  2 -1 0  -2 -0.8 0  -1.8 -0.8 0  -1.6 -0.8 0  -1.4 -0.8 0  -1.2 -0.8 0  -1 -0.8 0  -0.8 -0.8 0  -0.6000000000000001 -0.8 0  -0.3999999999999999 -0.8 0  -0.2 -0.8 0  0 -0.8 0  0.2000000000000002 -0.8 0  0.3999999999999999 -0.8 0  0.6000000000000001 -0.8 0  0.7999999999999998 -0.8 0  1 -0.8 0  1.2 -0.8 0  1.4 -0.8 0  1.6 -0.8 0  1.8 -0.8 0  2 -0.8 0  -2 -0.6000000000000001 0  -1.8 -0.6000000000000001 0  -1.6 -0.6000000000000001 0  -1.4 -0.6000000000000001 0  -1.2 -0.6000000000000001 0  -1 -0.6000000000000001 0  -0.8 -0.6000000000000001 0  -0.6000000000000001 -0.6000000000000001 0  -0.3999999999999999 -0.6000000000000001 0  -0.2 -0.6000000000000001 0  0 -0.6000000000000001 0  0.2000000000000002 -0.6000000000000001 0  0.3999999999999999 -0.6000000000000001 0  0.6000000000000001 -0.6000000000000001 0  0.7999999999999998 -0.6000000000000001 0  1 -0.6000000000000001 0  1.2 -0.6000000000000001 0  1.4 -0.6000000000000001 0  1.6 -0.6000000000000001 0  1.8 -0.6000000000000001 0  2 -0.6000000000000001 0  -2 -0.3999999999999999 0  -1.8 -0.3999999999999999 0  -1.6 -0.3999999999999999 0  -1.4 -0.3999999999999999 0  -1.2 -0.3999999999999999 0  -1 -0.3999999999999999 0  -0.8 -0.3999999999999999 0  -0.6000000000000001 -0.3999999999999999 0  -0.3999999999999999 -0.3999999999999999 0  -0.2 -0.3999999999999999 0  0 -0.3999999999999999 0  0.2000000000000002 -0.3999999999999999 0  0.3999999999999999 -0.3999999999999999 0  0.6000000000000001 -0.3999999999999999 0  0.7999999999999998 -0.3999999999999999 0  1 -0.3999999999999999 0  1.2 -0.3999999999999999 0  1.4 -0.3999999999999999 0  1.6 -0.3999999999999999 0  1.8 -0.3999999999999999 0  2 -0.3999999999999999 0  -2 -0.2 0  -1.8 -0.2 0  -1.6 -0.2 0  -1.4 -0.2 0  -1.2 -0.2 0  -1 -0.2 0  -0.8 -0.2 0  -0.6000000000000001 -0.2 0  -0.3999999999999999 -0.2 0  -0.2 -0.2 0  0 -0.2 0  0.2000000000000002 -0.2 0  0.3999999999999999 -0.2 0  0.6000000000000001 -0.2 0  0.7999999999999998 -0.2 0  1 -0.2 0  1.2 -0.2 0  1.4 -0.2 0  1.6 -0.2 0  1.8 -0.2 0  2 -0.2 0  -2 0 0  -1.8 0 0  -1.6 0 0  -1.4 0 0  -1.2 0 0  -1 0 0  -0.8 0 0  -0.6000000000000001 0 0  -0.3999999999999999 0 0  -0.2 0 0  0 0 0  0.2000000000000002 0 0  0.3999999999999999 0 0  0.6000000000000001 0 0  0.7999999999999998 0 0  1 0 0  1.2 0 0  1.4 0 0  1.6 0 0  1.8 0 0  2 0 0  -2 0.2000000000000002 0  -1.8 0.2000000000000002 0  -1.6 0.2000000000000002 0  -1.4 0.2000000000000002 0  -1.2 0.2000000000000002 0  -1 0.2000000000000002 0  -0.8 0.2000000000000002 0  -0.6000000000000001 0.2000000000000002 0  -0.3999999999999999 0.2000000000000002 0  -0.2 0.2000000000000002 0  0 0.2000000000000002 0  0.2000000000000002 0.2000000000000002 0  0.3999999999999999 0.2000000000000002 0  0.6000000000000001 0.2000000000000002 0  0.7999999999999998 0.2000000000000002 0  1 0.2000000000000002 0  1.2 0.2000000000000002 0  1.4 0.2000000000000002 0  1.6 0.2000000000000002 0  1.8 0.2000000000000002 0  2 0.2000000000000002 0  -2 0.3999999999999999 0  -1.8 0.3999999999999999 0  -1.6 0.3999999999999999 0  -1.4 0.3999999999999999 0  -1.2 0.3999999999999999 0  -1 0.3999999999999999 0  -0.8 0.3999999999999999 0  -0.6000000000000001 0.3999999999999999 0  -0.3999999999999999 0.3999999999999999 0  -0.2 0.3999999999999999 0  0 0.3999999999999999 0  0.2000000000000002 0.3999999999999999 0  0.3999999999999999 0.3999999999999999 0  0.6000000000000001 0.3999999999999999 0  0.7999999999999998 0.3999999999999999 0  1 0.3999999999999999 0  1.2 0.3999999999999999 0  1.4 0.3999999999999999 0  1.6 0.3999999999999999 0  1.8 0.3999999999999999 0  2 0.3999999999999999 0  -2 0.6000000000000001 0  -1.8 0.6000000000000001 0  -1.6 0.6000000000000001 0  -1.4 0.6000000000000001 0  -1.2 0.6000000000000001 0  -1 0.6000000000000001 0  -0.8 0.6000000000000001 0  -0.6000000000000001 0.6000000000000001 0  -0.3999999999999999 0.6000000000000001 0  -0.2 0.6000000000000001 0  0 0.6000000000000001 0  0.2000000000000002 0.6000000000000001 0  0.3999999999999999 0.6000000000000001 0  0.6000000000000001 0.6000000000000001 0  0.7999999999999998 0.6000000000000001 0  1 0.6000000000000001 0  1.2 0.6000000000000001 0  1.4 0.6000000000000001 0  1.6 0.6000000000000001 0  1.8 0.6000000000000001 0  2 0.6000000000000001 0  -2 0.7999999999999998 0  -1.8 0.7999999999999998 0  -1.6 0.7999999999999998 0  -1.4 0.7999999999999998 0  -1.2 0.7999999999999998 0  -1 0.7999999999999998 0  -0.8 0.7999999999999998 0  -0.6000000000000001 0.7999999999999998 0  -0.3999999999999999 0.7999999999999998 0  -0.2 0.7999999999999998 0  0 0.7999999999999998 0  0.2000000000000002 0.7999999999999998 0  0.3999999999999999 0.7999999999999998 0  0.6000000000000001 0.7999999999999998 0  0.7999999999999998 0.7999999999999998 0  1 0.7999999999999998 0  1.2 0.7999999999999998 0  1.4 0.7999999999999998 0  1.6 0.7999999999999998 0  1.8 0.7999999999999998 0  2 0.7999999999999998 0  -2 1 0  -1.8 1 0  -1.6 1 0  -1.4 1 0  -1.2 1 0  -1 1 0  -0.8 1 0  -0.6000000000000001 1 0  -0.3999999999999999 1 0  -0.2 1 0  0 1 0  0.2000000000000002 1 0  0.3999999999999999 1 0  0.6000000000000001 1 0  0.7999999999999998 1 0  1 1 0  1.2 1 0  1.4 1 0  1.6 1 0  1.8 1 0  2 1 0  -2 1.2 0  -1.8 1.2 0  -1.6 1.2 0  -1.4 1.2 0  -1.2 1.2 0  -1 1.2 0  -0.8 1.2 0  -0.6000000000000001 1.2 0  -0.3999999999999999 1.2 0  -0.2 1.2 0  0 1.2 0  0.2000000000000002 1.2 0  0.3999999999999999 1.2 0  0.6000000000000001 1.2 0  0.7999999999999998 1.2 0  1 1.2 0  1.2 1.2 0  1.4 1.2 0  1.6 1.2 0  1.8 1.2 0  2 1.2 0  -2 1.4 0  -1.8 1.4 0  -1.6 1.4 0  -1.4 1.4 0  -1.2 1.4 0  -1 1.4 0  -0.8 1.4 0  -0.6000000000000001 1.4 0  -0.3999999999999999 1.4 0  -0.2 1.4 0  0 1.4 0  0.2000000000000002 1.4 0  0.3999999999999999 1.4 0  0.6000000000000001 1.4 0  0.7999999999999998 1.4 0  1 1.4 0  1.2 1.4 0  1.4 1.4 0  1.6 1.4 0  1.8 1.4 0  2 1.4 0  -2 1.6 0  -1.8 1.6 0  -1.6 1.6 0  -1.4 1.6 0  -1.2 1.6 0  -1 1.6 0  -0.8 1.6 0  -0.6000000000000001 1.6 0  -0.3999999999999999 1.6 0  -0.2 1.6 0  0 1.6 0  0.2000000000000002 1.6 0  0.3999999999999999 1.6 0  0.6000000000000001 1.6 0  0.7999999999999998 1.6 0  1 1.6 0  1.2 1.6 0  1.4 1.6 0  1.6 1.6 0  1.8 1.6 0  2 1.6 0  -2 1.8 0  -1.8 1.8 0  -1.6 1.8 0  -1.4 1.8 0  -1.2 1.8 0  -1 1.8 0  -0.8 1.8 0  -0.6000000000000001 1.8 0  -0.3999999999999999 1.8 0  -0.2 1.8 0  0 1.8 0  0.2000000000000002 1.8 0  0.3999999999999999 1.8 0  0.6000000000000001 1.8 0  0.7999999999999998 1.8 0  1 1.8 0  1.2 1.8 0  1.4 1.8 0  1.6 1.8 0  1.8 1.8 0  2 1.8 0  -2 2 0  -1.8 2 0  -1.6 2 0  -1.4 2 0  -1.2 2 0  -1 2 0  -0.8 2 0  -0.6000000000000001 2 0  -0.3999999999999999 2 0  -0.2 2 0  0 2 0  0.2000000000000002 2 0  0.3999999999999999 2 0  0.6000000000000001 2 0  0.7999999999999998 2 0  1 2 0  1.2 2 0  1.4 2 0  1.6 2 0  1.8 2 0  2 2 0  </DataArray>
</Points>
<Cells>
[...]
<PointData  Scalars="f_8"> 
<DataArray  type="Float64"  Name="f_8"  format="ascii">9.2614666174682470e-01  9.0673033748316800e-01  8.5914258343170924e-01  7.8733043770420086e-01  6.9771584756594196e-01  5.9795293519313619e-01  4.9571200000599452e-01  3.9767256938060636e-01  3.0886024772334852e-01  2.3237604455297495e-01  1.6947896421313732e-01  1.1992024754025964e-01  8.2403090230693588e-02  5.5052400201952456e-02  3.5812820823732772e-02  2.2734491947929036e-02  1.4142315332437089e-02  8.7091097595978027e-03  5.4651875200986801e-03  3.7800274451415755e-03  3.3515748546860610e-03  9.2046881805187641e-01  9.0464347920169097e-01  8.5915807690505908e-01  7.8853442980225918e-01  6.9948292616817542e-01  5.9983149054318219e-01  4.9738664525387299e-01  3.9895210858451802e-01  3.0966578560805641e-01  2.3272035507639188e-01  1.6943805074070725e-01  1.1960253383771056e-01  8.1922201368672884e-02  5.4507588862580073e-02  3.5278323216073021e-02  2.2256634103192698e-02  1.3741600213066233e-02  8.3837361790362417e-03  5.1919014737571295e-03  3.5068457424196433e-03  2.9730668511592333e-03  9.2028988883882212e-01  9.0461734418064221e-01  8.5922023203748155e-01  7.8864165793467389e-01  6.9960420941801349e-01  5.9994472101021112e-01  4.9747758073941534e-01  3.9901370752997978e-01  3.0969713436337515e-01  2.3272507667473943e-01  1.6942244339454016e-01  1.1957379481933610e-01  8.1887027179500055e-02  5.4471294105151349e-02  3.5244466269183483e-02  2.2227028934679618e-02  1.3716552541339662e-02  8.3623736965003689e-03  5.1725860215827103e-03  3.4879280243023834e-03  2.9548773526472689e-03  9.2028788870775213e-01  9.0462103641416380e-01  8.5922701681370250e-01  7.8864960341049217e-01  6.9961187864409191e-01  5.9995112996430167e-01  4.9748218044539866e-01  3.9901634009083087e-01  3.0969795155674307e-01  2.3272443301450010e-01  1.6942078502055802e-01  1.1957156434634694e-01  8.1884597098954529e-02  5.4468932044719059e-02  3.5242327920653155e-02  2.2225170685406314e-02  1.3714956154054563e-02  8.3609790118179088e-03  5.1713327599196921e-03  3.4868097264721108e-03  2.9539955324220193e-03  9.2028822573389302e-01  9.0462152371791116e-01  8.5922756448797366e-01  7.8865013372785975e-01  6.9961233221902130e-01  5.9995146967112500e-01  4.9748239187854565e-01  3.9901642856366909e-01  3.0969793660769035e-01  2.3272434187683647e-01  1.6942064648602026e-01  1.1957140404967583e-01  8.1884434688946392e-02  5.4468780194786577e-02  3.5242192803027442e-02  2.2225053426526517e-02  1.3714854855188792e-02  8.3608910389563629e-03  5.1712569984931032e-03  3.4867481286740545e-03  2.9539524217855970e-03  9.2028826873286562e-01  9.0462156545340655e-01  8.5922760299923351e-01  7.8865016653412034e-01  6.9961235738329675e-01  5.9995148628263906e-01  4.9748240012662204e-01  3.9901642954132160e-01  3.0969793197310680e-01  2.3272433348540336e-01  1.6942063607697580e-01  1.1957139303487035e-01  8.1884424055833793e-02  5.4468770509542790e-02  3.5242184285979437e-02  2.2225046069297632e-02  1.3714848551807362e-02  8.3608857047332268e-03  5.1712526455199685e-03  3.4867448576701254e-03  2.9539502974130108e-03  9.2028827236781718e-01  9.0462156848088482e-01  8.5922760547659593e-01  7.8865016843384905e-01  6.9961235868298766e-01  5.9995148700214407e-01  4.9748240033353364e-01  3.9901642933894027e-01  3.0969793148118607e-01  2.3272433282099156e-01  1.6942063533985136e-01  1.1957139229949379e-01  8.1884423369714215e-02  5.4468769896638930e-02  3.5242183753209068e-02  2.2225045614187408e-02  1.3714848169478983e-02  8.3608853925793754e-03  5.1712524041382362e-03  3.4867446873960090e-03  2.9539501919521932e-03  9.2028827262912472e-01  9.0462156867975452e-01  8.5922760562503719e-01  7.8865016853666980e-01  6.9961235874396632e-01  5.9995148702643375e-01  4.9748240032799163e-01  3.9901642931144243e-01  3.0969793143961549e-01  2.3272433277232796e-01  1.6942063528957993e-01  1.1957139225139461e-01  8.1884423325983044e-02  5.4468769858232902e-02  3.5242183720292218e-02  2.2225045586558440e-02  1.3714848146883696e-02  8.3608853748396890e-03  5.1712523910782586e-03  3.4867446786264354e-03  2.9539501866808183e-03  9.2028827264615298e-01  9.0462156869187038e-01  8.5922760563335188e-01  7.8865016854179659e-01  6.9961235874639416e-01  5.9995148702666823e-01  4.9748240032657215e-01  3.9901642930890607e-01  3.0969793143644947e-01  2.3272433276893006e-01  1.6942063528624085e-01  1.1957139224829967e-01  8.1884423323229372e-02  5.4468769855855338e-02  3.5242183718289563e-02  2.2225045584914647e-02  1.3714848145579658e-02  8.3608853738546714e-03  5.1712523903834568e-03  3.4867446781771329e-03  2.9539501864156814e-03  9.2028827264718116e-01  9.0462156869255883e-01  8.5922760563378353e-01  7.8865016854202241e-01  6.9961235874645600e-01  5.9995148702660517e-01  4.9748240032642177e-01  3.9901642930870285e-01  3.0969793143622182e-01  2.3272433276870011e-01  1.6942063528602336e-01  1.1957139224810326e-01  8.1884423323058120e-02  5.4468769855710163e-02  3.5242183718169749e-02  2.2225045584818772e-02  1.3714848145505970e-02  8.3608853738010008e-03  5.1712523903469625e-03  3.4867446781542046e-03  2.9539501864023158e-03  9.2028827264723845e-01  9.0462156869259458e-01  8.5922760563380252e-01  7.8865016854202796e-01  6.9961235874645133e-01  5.9995148702659329e-01  4.9748240032640534e-01  3.9901642930868408e-01  3.0969793143620256e-01  2.3272433276868179e-01  1.6942063528600704e-01  1.1957139224808934e-01  8.1884423323046698e-02  5.4468769855701198e-02  3.5242183718163005e-02  2.2225045584813918e-02  1.3714848145502660e-02  8.3608853737988827e-03  5.1712523903456918e-03  3.4867446781534804e-03  2.9539501864019060e-03  9.2028827264723190e-01  9.0462156869258015e-01  8.5922760563377776e-01  7.8865016854199166e-01  6.9961235874640426e-01  5.9995148702653800e-01  4.9748240032634672e-01  3.9901642930862774e-01  3.0969793143615371e-01  2.3272433276864390e-01  1.6942063528598181e-01  1.1957139224807675e-01  8.1884423323045102e-02  5.4468769855707762e-02  3.5242183718174551e-02  2.2225045584827307e-02  1.3714848145515239e-02  8.3608853738086977e-03  5.1712523903515387e-03  3.4867446781548066e-03  2.9539501863986130e-03  9.2028827264704138e-01  9.0462156869225396e-01  8.5922760563327794e-01  7.8865016854131431e-01  6.9961235874558791e-01  5.9995148702565704e-01  4.9748240032549151e-01  3.9901642930788372e-01  3.0969793143558388e-01  2.3272433276827911e-01  1.6942063528582016e-01  1.1957139224808919e-01  8.1884423323184963e-02  5.4468769855921501e-02  3.5242183718410702e-02  2.2225045585043103e-02  1.3714848145679807e-02  8.3608853739032627e-03  5.1712523903669882e-03  3.4867446780869850e-03  2.9539501862413144e-03  9.2028827264321134e-01  9.0462156868583243e-01  8.5922760562388145e-01  7.8865016852935166e-01  6.9961235873220573e-01  5.9995148701239920e-01  4.9748240031387186e-01  3.9901642929903397e-01  3.0969793143006941e-01  2.3272433276608070e-01  1.6942063528644333e-01  1.1957139225074090e-01  8.1884423326962746e-02  5.4468769859973558e-02  3.5242183722045732e-02  2.2225045587782318e-02  1.3714848147256537e-02  8.3608853742201082e-03  5.1712523894198109e-03  3.4867446758581073e-03  2.9539501825499794e-03  9.2028827256597023e-01  9.0462156856004183e-01  8.5922760545062404e-01  7.8865016832557444e-01  6.9961235852454007e-01  5.9995148682825428e-01  4.9748240017411927e-01  3.9901642921421621e-01  3.0969793140009594e-01  2.3272433278238644e-01  1.6942063533533441e-01  1.1957139231684463e-01  8.1884423396057504e-02  5.4468769920841806e-02  3.5242183767292351e-02  2.2225045613759025e-02  1.3714848153323404e-02  8.3608853615682495e-03  5.1712523595846887e-03  3.4867446288719089e-03  2.9539501143888338e-03  9.2028827099668187e-01  9.0462156611968880e-01  8.5922760235336704e-01  7.8865016503573848e-01  6.9961235555554546e-01  5.9995148457763448e-01  4.9748239884307288e-01  3.9901642880438670e-01  3.0969793175917421e-01  2.3272433366960454e-01  1.6942063648548294e-01  1.1957139349030386e-01  8.1884424409777862e-02  5.4468770660548872e-02  3.5242184184419448e-02  2.2225045711978871e-02  1.3714847969374526e-02  8.3608849436910930e-03  5.1712517445419480e-03  3.4867438152004363e-03  2.9539490246498048e-03  9.2028823886569922e-01  9.0462151963560422e-01  8.5922754958644576e-01  7.8865011610819657e-01  6.9961231841302374e-01  5.9995146317541903e-01  4.9748239322143006e-01  3.9901643614804766e-01  3.0969794773725767e-01  2.3272435364126445e-01  1.6942065637926670e-01  1.1957141030828787e-01  8.1884436392193852e-02  5.4468777191423241e-02  3.5242185534477569e-02  2.2225042708449275e-02  1.3714841659360986e-02  8.3608762840783023e-03  5.1712413103438990e-03  3.4867314679530772e-03  2.9539334116924429e-03  9.2028757557389929e-01  9.0462066345143943e-01  8.5922671872159428e-01  7.8864948290550874e-01  6.9961196393443281e-01  5.9995138626870903e-01  4.9748253867451886e-01  3.9901672370295221e-01  3.0969829495165668e-01  2.3272469092035333e-01  1.6942093467743824e-01  1.1957160286496049e-01  8.1884536217256554e-02  5.4468792078473952e-02  3.5242132193066128e-02  2.2224941208987541e-02  1.3714710855174776e-02  8.3607302994334297e-03  5.1710865992337166e-03  3.4865632968396195e-03  2.9537296914683531e-03  9.2027376532492389e-01  9.0460587023550276e-01  8.5921538616949877e-01  7.8864338880214935e-01  6.9961094627323461e-01  5.9995425487481513e-01  4.9748774576837407e-01  3.9902278422485088e-01  3.0970401970842631e-01  2.3272928579548258e-01  1.6942400416307318e-01  1.1957308942086671e-01  8.1884624564617120e-02  5.4467804383505930e-02  3.5240434040698314e-02  2.2222869895196087e-02  1.3712528609387174e-02  8.3585970536765013e-03  5.1690400493433122e-03  3.4844866712169008e-03  2.9512759914014017e-03  9.1998367655784630e-01  9.0438328387756961e-01  8.5910513469349092e-01  7.8863229179589045e-01  6.9966893597654922e-01  6.0004989071287473e-01  4.9759417201708472e-01  3.9912003848972261e-01  3.0977962398632092e-01  2.3277772525156196e-01  1.6944541243944508e-01  1.1957148382518121e-01  8.1866065320040607e-02  5.4438798945050777e-02  3.5206782805315119e-02  2.2189001571015825e-02  1.3681245349991765e-02  8.3310598957793379e-03  5.1447631882822623e-03  3.4610348336186862e-03  2.9232004811605970e-03  9.1383528121357471e-01  9.0220926951905756e-01  8.5915768051528330e-01  7.8989080026221659e-01  7.0146849029710401e-01  6.0192942561851115e-01  4.9924227897021617e-01  4.0035492105541670e-01  3.1053288126843803e-01  2.3307123870659488e-01  1.6936162757901430e-01  1.1922224425310311e-01  8.1365714613486656e-02  5.3885333290186820e-02  3.4672075408229315e-02  2.1716727998238951e-02  1.3289672721622974e-02  8.0172571574820117e-03  4.8865053413195822e-03  3.2118124126991332e-03  2.5929624772841253e-03  </DataArray> 
</PointData> 
</Piece>
</UnstructuredGrid>
</VTKFile>