<?xml version="1.0"?>
<VTKFile type="UnstructuredGrid"  version="0.1"  >
<UnstructuredGrid>
<Piece  NumberOfPoints="441" NumberOfCells="800">
<Points>
<DataArray  type="Float64"  NumberOfComponents="3"  format="ascii">-2 -2 0  -1.8 -2 0  -1.6 -2 0  -1.4 -2 0  -1.2 -2 0  -1 -2 0  -0.8 -2 0  -0.6000000000000001 -2 0  -0.3999999999999999 -2 0  -0.2 -2 0  0 -2 0  0.2000000000000002 -2 0  0.3999999999999999 -2 0  0.6000000000000001 -2 0  0.7999999999999998 -2 0  1 -2 0  1.2 -2 0  1.4 -2 0  1.6 -2 0  1.8 -2 0  2 -2 0  -2 -1.8 0  -1.8 -1.8 0  -1.6 -1.8 0  -1.4 -1.8 0  -1.2 -1.8 0  -1 -1.8 0  -0.8 -1.8 0  -0.6000000000000001 -1.8 0  -0.3999999999999999 -1.8 0  -0.2 -1.8 0  0 -1.8 0  0.2000000000000002 -1.8 0  0.3999999999999999 -1.8 0  0.6000000000000001 -1.8 0  0.7999999999999998 -1.8 0  1 -1.8 0  1.2 -1.8 0  1.4 -1.8 0  1.6 -1.8 0  1.8 -1.8 0  2 -1.8 0  -2 -1.6 0  -1.8 -1.6 0  -1.6 -1.6 0  -1.4 -1.6 0  -1.2 -1.6 0  -1 -1.6 0  -0.8 -1.6 0  -0.6000000000000001 -1.6 0  -0.3999999999999999 -1.6 0  -0.2 -1.6 0  0 -1.6 0  0.2000000000000002 -1.6 0  0.3999999999999999 -1.6 0  0.6000000000000001 -1.6 0  0.7999999999999998 -1.6 0  1 -1.6 0  1.2 -1.6 0  1.4 -1.6 0  1.6 -1.6 0  1.8 -1.6 0  2 -1.6 0  -2 -1.4 0  -1.8 -1.4 0  -1.6 -1.4 0  -1.4 -1.4 0  -1.2 -1.4 0  -1 -1.4 0  -0.8 -1.4 0  -0.6000000000000001 -1.4 0  -0.3999999999999999 -1.4 0  -0.2 -1.4 0  0 -1.4 0  0.2000000000000002 -1.4 0  0.3999999999999999 -1.4 0  0.6000000000000001 -1.4 0  0.7999999999999998 -1.4 0  1 -1.4 0  1.2 -1.4 0  1.4 -1.4 0  1.6 -1.4 0  1.8 -1.4 0  2 -1.4 0  -2 -1.2 0  -1.8 -1.2 0  -1.6 -1.2 0  -1.4 -1.2 0  -1.2 -1.2 0  -1 -1.2 0  -0.8 -1.2 0  -0.6000000000000001 -1.2 0  -0.3999999999999999 -1.2 0  -0.2 -1.2 0  0 -1.2 0  0.2000000000000002 -1.2 0  0.3999999999999999 -1.2 0  0.6000000000000001 -1.2 0  0.7999999999999998 -1.2 0  1 -1.2 0  1.2 -1.2 0  1.4 -1.2 0  1.6 -1.2 0  1.8 -1.2 0  2 -1.2 0  -2 -1 0  -1.8 -1 0  -1.6 -1 0  -1.4 -1 0  -1.2 -1 0  -1 -1 0  -0.8 -1 0  -0.6000000000000001 -1 0  -0.3999999999999999 -1 0  -0.2 -1 0  0 -1 0  0.2000000000000002 -1 0  0.3999999999999999 -1 0  0.6000000000000001 -1 0  0.7999999999999998 -1 0  1 -1 0  1.2 -1 0  1.4 -1 0  1.6 -1 0  1.8 -1 0  2 -1 0  -2 -0.8 0  -1.8 -0.8 0  -1.6 -0.8 0  -1.4 -0.8 0  -1.2 -0.8 0  -1 -0.8 0  -0.8 -0.8 0  -0.6000000000000001 -0.8 0  -0.3999999999999999 -0.8 0  -0.2 -0.8 0  0 -0.8 0  0.2000000000000002 -0.8 0  0.3999999999999999 -0.8 0  0.6000000000000001 -0.8 0  0.7999999999999998 -0.8 0  1 -0.8 0  1.2 -0.8 0  1.4 -0.8 0  1.6 -0.8 0  1.8 -0.8 0  2 -0.8 0  -2 -0.6000000000000001 0  -1.8 -0.6000000000000001 0  -1.6 -0.6000000000000001 0  -1.4 -0.6000000000000001 0  -1.2 -0.6000000000000001 0  -1 -0.6000000000000001 0  -0.8 -0.6000000000000001 0  -0.6000000000000001 -0.6000000000000001 0  -0.3999999999999999 -0.6000000000000001 0  -0.2 -0.6000000000000001 0  0 -0.6000000000000001 0  0.2000000000000002 -0.6000000000000001 0  0.3999999999999999 -0.6000000000000001 0  0.6000000000000001 -0.6000000000000001 0  0.7999999999999998 -0.6000000000000001 0  1 -0.6000000000000001 0  1.2 -0.6000000000000001 0  1.4 -0.6000000000000001 0  1.6 -0.6000000000000001 0  1.8 -0.6000000000000001 0  2 -0.6000000000000001 0  -2 -0.3999999999999999 0  -1.8 -0.3999999999999999 0  -1.6 -0.3999999999999999 0  -1.4 -0.3999999999999999 0  -1.2 -0.3999999999999999 0  -1 -0.3999999999999999 0  -0.8 -0.3999999999999999 0  -0.6000000000000001 -0.3999999999999999 0  -0.3999999999999999 -0.3999999999999999 0  -0.2 -0.3999999999999999 0  0 -0.3999999999999999 0  0.2000000000000002 -0.3999999999999999 0  0.3999999999999999 -0.3999999999999999 0  0.6000000000000001 -0.3999999999999999 0  0.7999999999999998 -0.3999999999999999 0  1 -0.3999999999999999 0  1.2 -0.3999999999999999 0  1.4 -0.3999999999999999 0  1.6 -0.3999999999999999 0  1.8 -0.3999999999999999 0  2 -0.3999999999999999 0  -2 -0.2 0  -1.8 -0.2 0  -1.6 -0.2 0  -1.4 -0.2 0  -1.2 -0.2 0  -1 -0.2 0  -0.8 -0.2 0  -0.6000000000000001 -0.2 0  -0.3999999999999999 -0.2 0  -0.2 -0.2 0  0 -0.2 0  0.2000000000000002 -0.2 0  0.3999999999999999 -0.2 0  0.6000000000000001 -0.2 0  0.7999999999999998 -0.2 0  1 -0.2 0  1.2 -0.2 0  1.4 -0.2 0  1.6 -0.2 0  1.8 -0.2 0  2 -0.2 0  -2 0 0  -1.8 0 0  -1.6 0 0  -1.4 0 0  -1.2 0 0  -1 0 0  -0.8 0 0  -0.6000000000000001 0 0  -0.3999999999999999 0 0  -0.2 0 0  0 0 0  0.2000000000000002 0 0  0.3999999999999999 0 0  0.6000000000000001 0 0  0.7999999999999998 0 0  1 0 0  1.2 0 0  1.4 0 0  1.6 0 0  1.8 0 0  2 0 0  -2 0.2000000000000002 0  -1.8 0.2000000000000002 0  -1.6 0.2000000000000002 0  -1.4 0.2000000000000002 0  -1.2 0.2000000000000002 0  -1 0.2000000000000002 0  -0.8 0.2000000000000002 0  -0.6000000000000001 0.2000000000000002 0  -0.3999999999999999 0.2000000000000002 0  -0.2 0.2000000000000002 0  0 0.2000000000000002 0  0.2000000000000002 0.2000000000000002 0  0.3999999999999999 0.2000000000000002 0  0.6000000000000001 0.2000000000000002 0  0.7999999999999998 0.2000000000000002 0  1 0.2000000000000002 0  1.2 0.2000000000000002 0  1.4 0.2000000000000002 0  1.6 0.2000000000000002 0  1.8 0.2000000000000002 0  2 0.2000000000000002 0  -2 0.3999999999999999 0  -1.8 0.3999999999999999 0  -1.6 0.3999999999999999 0  -1.4 0.3999999999999999 0  -1.2 0.3999999999999999 0  -1 0.3999999999999999 0  -0.8 0.3999999999999999 0  -0.6000000000000001 0.3999999999999999 0  -0.3999999999999999 0.3999999999999999 0  -0.2 0.3999999999999999 0  0 0.3999999999999999 0  0.2000000000000002 0.3999999999999999 0  0.3999999999999999 0.3999999999999999 0  0.6000000000000001 0.3999999999999999 0  0.7999999999999998 0.3999999999999999 0  1 0.3999999999999999 0  1.2 0.3999999999999999 0  1.4 0.3999999999999999 0  1.6 0.3999999999999999 0  1.8 0.3999999999999999 0  2 0.3999999999999999 0  -2 0.6000000000000001 0  -1.8 0.6000000000000001 0  -1.6 0.6000000000000001 0  -1.4 0.6000000000000001 0  -1.2 0.6000000000000001 0  -1 0.6000000000000001 0  -0.8 0.6000000000000001 0  -0.6000000000000001 0.6000000000000001 0  -0.3999999999999999 0.6000000000000001 0  -0.2 0.6000000000000001 0  0 0.6000000000000001 0  0.2000000000000002 0.6000000000000001 0  0.3999999999999999 0.6000000000000001 0  0.6000000000000001 0.6000000000000001 0  0.7999999999999998 0.6000000000000001 0  1 0.6000000000000001 0  1.2 0.6000000000000001 0  1.4 0.6000000000000001 0  1.6 0.6000000000000001 0  1.8 0.6000000000000001 0  2 0.6000000000000001 0  -2 0.7999999999999998 0  -1.8 0.7999999999999998 0  -1.6 0.7999999999999998 0  -1.4 0.7999999999999998 0  -1.2 0.7999999999999998 0  -1 0.7999999999999998 0  -0.8 0.7999999999999998 0  -0.6000000000000001 0.7999999999999998 0  -0.3999999999999999 0.7999999999999998 0  -0.2 0.7999999999999998 0  0 0.7999999999999998 0  0.2000000000000002 0.7999999999999998 0  0.3999999999999999 0.7999999999999998 0  0.6000000000000001 0.7999999999999998 0  0.7999999999999998 0.7999999999999998 0  1 0.7999999999999998 0  1.2 0.7999999999999998 0  1.4 0.7999999999999998 0  1.6 0.7999999999999998 0  1.8 0.7999999999999998 0  2 0.7999999999999998 0  -2 1 0  -1.8 1 0  -1.6 1 0  -1.4 1 0  -1.2 1 0  -1 1 0  -0.8 1 0  -0.6000000000000001 1 0  -0.3999999999999999 1 0  -0.2 1 0  0 1 0  0.2000000000000002 1 0  0.3999999999999999 1 0  0.6000000000000001 1 0  0.7999999999999998 1 0  1 1 0  1.2 1 0  1.4 1 0  1.6 1 0  1.8 1 0  2 1 0  -2 1.2 0  -1.8 1.2 0  -1.6 1.2 0  -1.4 1.2 0  -1.2 1.2 0  -1 1.2 0  -0.8 1.2 0  -0.6000000000000001 1.2 0  -0.3999999999999999 1.2 0  -0.2 1.2 0  0 1.2 0  0.2000000000000002 1.2 0  0.3999999999999999 1.2 0  0.6000000000000001 1.2 0  0.7999999999999998 1.2 0  1 1.2 0  1.2 1.2 0  1.4 1.2 0  1.6 1.2 0  1.8 1.2 0  2 1.2 0  -2 1.4 0  -1.8 1.4 0  -1.6 1.4 0  -1.4 1.4 0  -1.2 1.4 0  -1 1.4 0  -0.8 1.4 0  -0.6000000000000001 1.4 0  -0.3999999999999999 1.4 0  -0.2 1.4 0  0 1.4 0  0.2000000000000002 1.4 0  0.3999999999999999 1.4 0  0.6000000000000001 1.4 0  0.7999999999999998 1.4 0  1 1.4 0  1.2 1.4 0  1.4 1.4 0  1.6 1.4 0  1.8 1.4 0  2 1.4 0  -2 1.6 0  -1.8 1.6 0  -1.6 1.6 0  -1.4 1.6 0  -1.2 1.6 0  -1 1.6 0  -0.8 1.6 0  -0.6000000000000001 1.6 0  -0.3999999999999999 1.6 0  -0.2 1.6 0  0 1.6 0  0.2000000000000002 1.6 0  0.3999999999999999 1.6 0  0.6000000000000001 1.6 0  0.7999999999999998 1.6 0  1 1.6 0  1.2 1.6 0  1.4 1.6 0  1.6 1.6 0  1.8 1.6 0  2 1.6 0  -2 1.8 0  -1.8 1.8 0  -1.6 1.8 0  -1.4 1.8 0  -1.2 1.8 0  -1 1.8 0  -0.8 1.8 0  -0.6000000000000001 1.8 0  -0.3999999999999999 1.8 0  -0.2 1.8 0  0 1.8 0  0.2000000000000002 1.8 0  0.3999999999999999 1.8 0  0.6000000000000001 1.8 0  0.7999999999999998 1.8 0  1 1.8 0  1.2 1.8 0  1.4 1.8 0  1.6 1.8 0  1.8 1.8 0  2 1.8 0  -2 2 0  -1.8 2 0  -1.6 2 0  -1.4 2 0  -1.2 2 0  -1 2 0  -0.8 2 0  -0.6000000000000001 2 0  -0.3999999999999999 2 0  -0.2 2 0  0 2 0  0.2000000000000002 2 0  0.3999999999999999 2 0  0.6000000000000001 2 0  0.7999999999999998 2 0  1 2 0  1.2 2 0  1.4 2 0  1.6 2 0  1.8 2 0  2 2 0  </DataArray>
</Points>
<Cells>
[...]
<PointData  Scalars="f_8"> 
<DataArray  type="Float64"  Name="f_8"  format="ascii">5.2241106495391498e-01  5.1874276827937704e-01  5.0964865353071354e-01  4.9537707496237549e-01  4.7638062619409605e-01  4.5327792613376094e-01  4.2681322836473995e-01  3.9781466249927633e-01  3.6715294253010156e-01  3.3570273605190304e-01  3.0430877348445812e-01  2.7375834108383457e-01  2.4476117776409642e-01  2.1793710061965232e-01  1.9381101863491582e-01  1.7281444152582726e-01  1.5529221625534992e-01  1.4151307925813247e-01  1.3168274621349418e-01  1.2595873654592529e-01  1.2446705484632183e-01  5.2079405772892928e-01  5.1787006328177210e-01  5.0926665770425228e-01  4.9532766327068034e-01  4.7655929977409028e-01  4.5361069255222658e-01  4.2724413804578082e-01  3.9829934251271326e-01  3.6765540217222042e-01  3.3619382994133845e-01  3.0476535751482242e-01  2.7416254091934628e-01  2.4509941227874232e-01  2.1819861359084333e-01  1.9398568697691415e-01  1.7288953661810103e-01  1.5524755622807115e-01  1.4131354066843113e-01  1.3126624613521312e-01  1.2521626374842648e-01  1.2320860253749662e-01  5.2044268137683058e-01  5.1757456694515447e-01  5.0907537525487367e-01  4.9525157779877965e-01  4.7659003198459093e-01  4.5373020808280251e-01  4.2743015963246012e-01  3.9852851376677023e-01  3.6790521993147013e-01  3.3644382876980616e-01  3.0499776719823146e-01  2.7436252183234194e-01  2.4525493652788952e-01  2.1830006636604998e-01  1.9402529768334498e-01  1.7286081468466921e-01  1.5514502168118463e-01  1.4113325054763451e-01  1.3100801474023688e-01  1.2488922688977752e-01  1.2284319786965614e-01  5.2034811633618838e-01  5.1749007821198489e-01  5.0901763410625889e-01  4.9523027720891760e-01  4.7660800620733507e-01  4.5378471134003823e-01  4.2751445758098361e-01  3.9863342009600367e-01  3.6802042504353016e-01  3.3655896285230652e-01  3.0510318555451138e-01  2.7444982752260572e-01  2.4531727699646072e-01  2.1833226083622739e-01  1.9402387080302083e-01  1.7282402719263057e-01  1.5507299621059201e-01  1.4102828022347033e-01  1.3087509216034945e-01  1.2473669421089217e-01  1.2268309587301600e-01  5.2032781341524026e-01  5.1747261807853240e-01  5.0900823558958319e-01  4.9523261513729755e-01  4.7662374804814195e-01  4.5381349365442847e-01  4.2755416647104294e-01  3.9868064228779743e-01  3.6807096159188257e-01  3.3660832710459132e-01  3.0514703487972106e-01  2.7448430271650520e-01  2.4533924368587895e-01  2.1833946311959021e-01  1.9401501800582843e-01  1.7279883891917686e-01  1.5503222752117485e-01  1.4097373636038316e-01  1.3080961992421064e-01  1.2466410640642039e-01  1.2260795504594944e-01  5.2032745510797818e-01  5.1747313301667419e-01  5.0901122728695569e-01  4.9523926388440642e-01  4.7663462564154979e-01  4.5382849526100855e-01  4.2757255073612405e-01  3.9870115348967744e-01  3.6809200120188595e-01  3.3662814323404822e-01  3.0516390379193414e-01  2.7449668447307285e-01  2.4534590226185807e-01  2.1833954859892757e-01  1.9400811378893151e-01  1.7278497964460757e-01  1.5501189343193628e-01  1.4094782742905282e-01  1.3077940913256794e-01  1.2463116795354476e-01  1.2257406272194188e-01  5.2033031303294508e-01  5.1747624322981689e-01  5.0901504628023686e-01  4.9524412288687597e-01  4.7664067054975778e-01  4.5383565839137635e-01  4.2758055598540196e-01  3.9870955033232425e-01  3.6810021905618101e-01  3.3663555622389213e-01  3.0516989642970327e-01  2.7450071065667153e-01  2.4534753252657954e-01  2.1833850316905723e-01  1.9400428115498933e-01  1.7277842185521675e-01  1.5500283994544731e-01  1.4093665933644001e-01  1.3076663514241529e-01  1.2461739315420542e-01  1.2255995124811304e-01  5.2033237405064237e-01  5.1747836614763831e-01  5.0901734506164031e-01  4.9524667498428598e-01  4.7664349932036859e-01  4.5383872431270250e-01  4.2758375758510558e-01  3.9871273400049578e-01  3.6810319558172760e-01  3.3663812117367814e-01  3.0517185137894964e-01  2.7450188266536951e-01  2.4534778995535825e-01  2.1833776674121702e-01  1.9400252992893277e-01  1.7277569435694642e-01  1.5499923107354197e-01  1.4093231380511212e-01  1.3076173823465187e-01  1.2461215950391498e-01  1.2255461233598730e-01  5.2033338425065356e-01  5.1747938675006888e-01  5.0901839915889180e-01  4.9524777567479222e-01  4.7664464504403020e-01  4.5383989656300577e-01  4.2758492127863895e-01  3.9871384032623358e-01  3.6810418677598078e-01  3.3663893643451426e-01  3.0517243306599601e-01  2.7450218200936005e-01  2.4534777168344571e-01  2.1833741225544473e-01  1.9400183890586928e-01  1.7277468482849107e-01  1.5499793818189175e-01  1.4093078749596208e-01  1.3076004017273149e-01  1.2461035948209524e-01  1.2255278442153354e-01  5.2033378648172457e-01  5.1747978873282319e-01  5.0901880400561872e-01  4.9524818398131903e-01  4.7664505376345484e-01  4.5384029849219620e-01  4.2758530522606475e-01  3.9871419191581348e-01  3.6810448974537258e-01  3.3663917422410561e-01  3.0517259047363926e-01  2.7450224670302320e-01  2.4534773540972254e-01  2.1833727164301153e-01  1.9400159582616100e-01  1.7277434633046179e-01  1.5499751605729661e-01  1.4093029755420788e-01  1.3075950131173869e-01  1.2460979263780711e-01  1.2255221146837325e-01  5.2033392458911965e-01  5.1747992610089844e-01  5.0901894100065204e-01  4.9524832028858368e-01  4.7664518807254747e-01  4.5384042835317517e-01  4.2758542709650965e-01  3.9871430138790731e-01  3.6810458191531159e-01  3.3663924414807800e-01  3.0517263364744240e-01  2.7450225950580170e-01  2.4534771546400258e-01  2.1833721805974135e-01  1.9400150932120069e-01  1.7277422921482552e-01  1.5499737211542844e-01  1.4093013183186590e-01  1.3075931983793451e-01  1.2460960210469979e-01  1.2255201889037895e-01  5.2033397778702528e-01  5.1747998069146095e-01  5.0901899901680892e-01  4.9524838305811630e-01  4.7664525583348144e-01  4.5384050002667048e-01  4.2758550024649883e-01  3.9871437236721563e-01  3.6810464617132543e-01  3.3663929664157061e-01  3.0517266932820747e-01  2.7450227378837044e-01  2.4534770465422170e-01  2.1833717969554337e-01  1.9400144240538714e-01  1.7277413433136912e-01  1.5499725143179865e-01  1.4092998899735576e-01  1.3075915979205796e-01  1.2460943081128996e-01  1.2255184301324333e-01  5.2033405977023439e-01  5.1748006974775751e-01  5.0901910435050024e-01  4.9524851130474556e-01  4.7664540970127689e-01  4.5384067750127749e-01  4.2758569445170974e-01  3.9871457206841515e-01  3.6810483681712242e-01  3.3663946177686066e-01  3.0517279218455129e-01  2.7450233886304326e-01  2.4534769911976947e-01  2.1833709452645159e-01  1.9400127315669530e-01  1.7277388154702150e-01  1.5499692069291979e-01  1.4092959064096633e-01  1.3075870834075079e-01  1.2460894415786417e-01  1.2255134140558882e-01  5.2033433487295011e-01  5.1748036927148666e-01  5.0901946447669166e-01  4.9524895815583603e-01  4.7664595433386853e-01  4.5384131317742321e-01  4.2758639646011015e-01  3.9871529994273724e-01  3.6810553846154875e-01  3.3664007880670999e-01  3.0517326573181325e-01  2.7450261516186114e-01  2.4534773433553281e-01  2.1833685847824166e-01  1.9400075176469733e-01  1.7277307798418828e-01  1.5499585531900206e-01  1.4092829984779676e-01  1.3075724245337383e-01  1.2460736453614604e-01  1.2254971689382277e-01  5.2033505996564045e-01  5.1748117509771807e-01  5.0902048580044612e-01  4.9525029269174808e-01  4.7664764543049687e-01  4.5384334120558267e-01  4.2758867950410362e-01  3.9871770280037666e-01  3.6810788783664722e-01  3.3664218203523660e-01  3.0517493038163657e-01  2.7450366725241609e-01  2.4534803356222409e-01  2.1833630952287097e-01  1.9399931138634899e-01  1.7277075802525077e-01  1.5499272199842851e-01  1.4092446977597337e-01  1.3075287576319977e-01  1.2460265547889562e-01  1.2254488228096137e-01  5.2033610269476360e-01  5.1748248530052454e-01  5.0902253884194404e-01  4.9525343447294334e-01  4.7665203657681970e-01  4.5384893313050301e-01  4.2759522227341967e-01  3.9872477931494954e-01  3.6811496579570835e-01  3.3664867432138273e-01  3.0518025541533789e-01  2.7450730284705538e-01  2.4534956022755797e-01  2.1833544147045586e-01  1.9399591528757718e-01  1.7276486063760163e-01  1.5498450807127961e-01  1.4091427132634096e-01  1.3074115320423579e-01  1.2458997065191893e-01  1.2253186366468112e-01  5.2033437438159036e-01  5.1748164231123772e-01  5.0902416657264538e-01  4.9525867465616497e-01  4.7666142272845946e-01  4.5386234176102985e-01  4.2761192549152033e-01  3.9874357054456411e-01  3.6813432649126288e-01  3.3666695232160654e-01  3.0519583202669837e-01  2.7451873369756147e-01  2.4535568276517400e-01  2.1833544853202233e-01  1.9398939863254058e-01  1.7275183025548166e-01  1.5496539231678055e-01  1.4088989984661532e-01  1.3071272017170008e-01  1.2455897187092316e-01  1.2250000062586733e-01  5.2031509061201309e-01  5.1746529678959030e-01  5.0901582972961912e-01  4.9526180743442100e-01  4.7667749267208215e-01  4.5389085536088142e-01  4.2765073605245385e-01  3.9878933196538563e-01  3.6818299145248029e-01  3.3671424343220796e-01  3.0523764179226093e-01  2.7455143257824405e-01  2.4537633378366080e-01  2.1834194149681715e-01  1.9398052639499327e-01  1.7272733252243205e-01  1.5492598807945820e-01  1.4083731597655419e-01  1.3064970017571956e-01  1.2448921668634542e-01  1.2242796189450210e-01  5.2022602611582147e-01  5.1738686044784155e-01  5.0896407026144075e-01  4.9524575983546493e-01  4.7669951010949080e-01  4.5394794257877064e-01  4.2773612743495304e-01  3.9889398730417164e-01  3.6829687455418975e-01  3.3682733421687283e-01  3.0534067403126175e-01  2.7463637496486060e-01  2.4543665287756150e-01  2.1837270468953476e-01  1.9397842137532278e-01  1.7269069478607568e-01  1.5485493525558219e-01  1.4073407691983467e-01  1.3051917506873090e-01  1.2433966222230973e-01  1.2227135864242780e-01  5.1988510661794385e-01  5.1710354160598870e-01  5.0878382032448555e-01  4.9517850277079967e-01  4.7673668437279526e-01  4.5407172765652037e-01  4.2792461279060401e-01  3.9912421780502666e-01  3.6854672922507314e-01  3.3707668968133442e-01  3.0557205605736021e-01  2.7483519342704510e-01  2.4559108275637259e-01  2.1847328479439176e-01  1.9401747953186815e-01  1.7266177576951580e-01  1.5475252656039623e-01  1.4055414520471904e-01  1.3026143603759949e-01  1.2401328389081323e-01  1.2190726762680106e-01  5.1828809340762860e-01  5.1623777999511478e-01  5.0840193527954713e-01  4.9512628185496799e-01  4.7691207584680134e-01  4.5440218666568016e-01  4.2835491502192424e-01  3.9961018217772226e-01  3.6905217453567568e-01  3.3757203228584554e-01  3.0603358892851906e-01  2.7524446297045613e-01  2.4593399920639947e-01  2.1873871245271373e-01  1.9419506863048280e-01  1.7273870595739751e-01  1.5470859102478207e-01  1.4035412843499584e-01  1.2984286690075392e-01  1.2326608677002585e-01  1.2063905935772283e-01  </DataArray> 
</PointData> 
</Piece>
</UnstructuredGrid>
</VTKFile>