<?xml version="1.0"?>
<VTKFile type="UnstructuredGrid"  version="0.1"  >
<UnstructuredGrid>
<Piece  NumberOfPoints="441" NumberOfCells="800">
<Points>
<DataArray  type="Float64"  NumberOfComponents="3"  format="ascii">-2 -2 0  -1.8 -2 0  -1.6 -2 0  -1.4 -2 0  -1.2 -2 0  -1 -2 0  -0.8 -2 0  -0.6000000000000001 -2 0  -0.3999999999999999 -2 0  -0.2 -2 0  0 -2 0  0.2000000000000002 -2 0  0.3999999999999999 -2 0  0.6000000000000001 -2 0  0.7999999999999998 -2 0  1 -2 0  1.2 -2 0  1.4 -2 0  1.6 -2 0  1.8 -2 0  2 -2 0  -2 -1.8 0  -1.8 -1.8 0  -1.6 -1.8 0  -1.4 -1.8 0  -1.2 -1.8 0  -1 -1.8 0  -0.8 -1.8 0  -0.6000000000000001 -1.8 0  -0.3999999999999999 -1.8 0  -0.2 -1.8 0  0 -1.8 0  0.2000000000000002 -1.8 0  0.3999999999999999 -1.8 0  0.6000000000000001 -1.8 0  0.7999999999999998 -1.8 0  1 -1.8 0  1.2 -1.8 0  1.4 -1.8 0  1.6 -1.8 0  1.8 -1.8 0  2 -1.8 0  -2 -1.6 0  -1.8 -1.6 0  -1.6 -1.6 0  -1.4 -1.6 0  -1.2 -1.6 0  -1 -1.6 0  -0.8 -1.6 0  -0.6000000000000001 -1.6 0  -0.3999999999999999 -1.6 0  -0.2 -1.6 0  0 -1.6 0  0.2000000000000002 -1.6 0  0.3999999999999999 -1.6 0  0.6000000000000001 -1.6 0  0.7999999999999998 -1.6 0  1 -1.6 0  1.2 -1.6 0  1.4 -1.6 0  1.6 -1.6 0  1.8 -1.6 0  2 -1.6 0  -2 -1.4 0  -1.8 -1.4 0  -1.6 -1.4 0  -1.4 -1.4 0  -1.2 -1.4 0  -1 -1.4 0  -0.8 -1.4 0  -0.6000000000000001 -1.4 0  -0.3999999999999999 -1.4 0  -0.2 -1.4 0  0 -1.4 0  0.2000000000000002 -1.4 0  0.3999999999999999 -1.4 0  0.6000000000000001 -1.4 0  0.7999999999999998 -1.4 0  1 -1.4 0  1.2 -1.4 0  1.4 -1.4 0  1.6 -1.4 0  1.8 -1.4 0  2 -1.4 0  -2 -1.2 0  -1.8 -1.2 0  -1.6 -1.2 0  -1.4 -1.2 0  -1.2 -1.2 0  -1 -1.2 0  -0.8 -1.2 0  -0.6000000000000001 -1.2 0  -0.3999999999999999 -1.2 0  -0.2 -1.2 0  0 -1.2 0  0.2000000000000002 -1.2 0  0.3999999999999999 -1.2 0  0.6000000000000001 -1.2 0  0.7999999999999998 -1.2 0  1 -1.2 0  1.2 -1.2 0  1.4 -1.2 0  1.6 -1.2 0  1.8 -1.2 0  2 -1.2 0  -2 -1 0  -1.8 -1 0  -1.6 -1 0  -1.4 -1 0  -1.2 -1 0  -1 -1 0  -0.8 -1 0  -0.6000000000000001 -1 0  -0.3999999999999999 -1 0  -0.2 -1 0  0 -1 0  0.2000000000000002 -1 0  0.3999999999999999 -1 0  0.6000000000000001 -1 0  0.7999999999999998 -1 0  1 -1 0  1.2 -1 0  1.4 -1 0  1.6 -1 0  1.8 -1 0  2 -1 0  -2 -0.8 0  -1.8 -0.8 0  -1.6 -0.8 0  -1.4 -0.8 0  -1.2 -0.8 0  -1 -0.8 0  -0.8 -0.8 0  -0.6000000000000001 -0.8 0  -0.3999999999999999 -0.8 0  -0.2 -0.8 0  0 -0.8 0  0.2000000000000002 -0.8 0  0.3999999999999999 -0.8 0  0.6000000000000001 -0.8 0  0.7999999999999998 -0.8 0  1 -0.8 0  1.2 -0.8 0  1.4 -0.8 0  1.6 -0.8 0  1.8 -0.8 0  2 -0.8 0  -2 -0.6000000000000001 0  -1.8 -0.6000000000000001 0  -1.6 -0.6000000000000001 0  -1.4 -0.6000000000000001 0  -1.2 -0.6000000000000001 0  -1 -0.6000000000000001 0  -0.8 -0.6000000000000001 0  -0.6000000000000001 -0.6000000000000001 0  -0.3999999999999999 -0.6000000000000001 0  -0.2 -0.6000000000000001 0  0 -0.6000000000000001 0  0.2000000000000002 -0.6000000000000001 0  0.3999999999999999 -0.6000000000000001 0  0.6000000000000001 -0.6000000000000001 0  0.7999999999999998 -0.6000000000000001 0  1 -0.6000000000000001 0  1.2 -0.6000000000000001 0  1.4 -0.6000000000000001 0  1.6 -0.6000000000000001 0  1.8 -0.6000000000000001 0  2 -0.6000000000000001 0  -2 -0.3999999999999999 0  -1.8 -0.3999999999999999 0  -1.6 -0.3999999999999999 0  -1.4 -0.3999999999999999 0  -1.2 -0.3999999999999999 0  -1 -0.3999999999999999 0  -0.8 -0.3999999999999999 0  -0.6000000000000001 -0.3999999999999999 0  -0.3999999999999999 -0.3999999999999999 0  -0.2 -0.3999999999999999 0  0 -0.3999999999999999 0  0.2000000000000002 -0.3999999999999999 0  0.3999999999999999 -0.3999999999999999 0  0.6000000000000001 -0.3999999999999999 0  0.7999999999999998 -0.3999999999999999 0  1 -0.3999999999999999 0  1.2 -0.3999999999999999 0  1.4 -0.3999999999999999 0  1.6 -0.3999999999999999 0  1.8 -0.3999999999999999 0  2 -0.3999999999999999 0  -2 -0.2 0  -1.8 -0.2 0  -1.6 -0.2 0  -1.4 -0.2 0  -1.2 -0.2 0  -1 -0.2 0  -0.8 -0.2 0  -0.6000000000000001 -0.2 0  -0.3999999999999999 -0.2 0  -0.2 -0.2 0  0 -0.2 0  0.2000000000000002 -0.2 0  0.3999999999999999 -0.2 0  0.6000000000000001 -0.2 0  0.7999999999999998 -0.2 0  1 -0.2 0  1.2 -0.2 0  1.4 -0.2 0  1.6 -0.2 0  1.8 -0.2 0  2 -0.2 0  -2 0 0  -1.8 0 0  -1.6 0 0  -1.4 0 0  -1.2 0 0  -1 0 0  -0.8 0 0  -0.6000000000000001 0 0  -0.3999999999999999 0 0  -0.2 0 0  0 0 0  0.2000000000000002 0 0  0.3999999999999999 0 0  0.6000000000000001 0 0  0.7999999999999998 0 0  1 0 0  1.2 0 0  1.4 0 0  1.6 0 0  1.8 0 0  2 0 0  -2 0.2000000000000002 0  -1.8 0.2000000000000002 0  -1.6 0.2000000000000002 0  -1.4 0.2000000000000002 0  -1.2 0.2000000000000002 0  -1 0.2000000000000002 0  -0.8 0.2000000000000002 0  -0.6000000000000001 0.2000000000000002 0  -0.3999999999999999 0.2000000000000002 0  -0.2 0.2000000000000002 0  0 0.2000000000000002 0  0.2000000000000002 0.2000000000000002 0  0.3999999999999999 0.2000000000000002 0  0.6000000000000001 0.2000000000000002 0  0.7999999999999998 0.2000000000000002 0  1 0.2000000000000002 0  1.2 0.2000000000000002 0  1.4 0.2000000000000002 0  1.6 0.2000000000000002 0  1.8 0.2000000000000002 0  2 0.2000000000000002 0  -2 0.3999999999999999 0  -1.8 0.3999999999999999 0  -1.6 0.3999999999999999 0  -1.4 0.3999999999999999 0  -1.2 0.3999999999999999 0  -1 0.3999999999999999 0  -0.8 0.3999999999999999 0  -0.6000000000000001 0.3999999999999999 0  -0.3999999999999999 0.3999999999999999 0  -0.2 0.3999999999999999 0  0 0.3999999999999999 0  0.2000000000000002 0.3999999999999999 0  0.3999999999999999 0.3999999999999999 0  0.6000000000000001 0.3999999999999999 0  0.7999999999999998 0.3999999999999999 0  1 0.3999999999999999 0  1.2 0.3999999999999999 0  1.4 0.3999999999999999 0  1.6 0.3999999999999999 0  1.8 0.3999999999999999 0  2 0.3999999999999999 0  -2 0.6000000000000001 0  -1.8 0.6000000000000001 0  -1.6 0.6000000000000001 0  -1.4 0.6000000000000001 0  -1.2 0.6000000000000001 0  -1 0.6000000000000001 0  -0.8 0.6000000000000001 0  -0.6000000000000001 0.6000000000000001 0  -0.3999999999999999 0.6000000000000001 0  -0.2 0.6000000000000001 0  0 0.6000000000000001 0  0.2000000000000002 0.6000000000000001 0  0.3999999999999999 0.6000000000000001 0  0.6000000000000001 0.6000000000000001 0  0.7999999999999998 0.6000000000000001 0  1 0.6000000000000001 0  1.2 0.6000000000000001 0  1.4 0.6000000000000001 0  1.6 0.6000000000000001 0  1.8 0.6000000000000001 0  2 0.6000000000000001 0  -2 0.7999999999999998 0  -1.8 0.7999999999999998 0  -1.6 0.7999999999999998 0  -1.4 0.7999999999999998 0  -1.2 0.7999999999999998 0  -1 0.7999999999999998 0  -0.8 0.7999999999999998 0  -0.6000000000000001 0.7999999999999998 0  -0.3999999999999999 0.7999999999999998 0  -0.2 0.7999999999999998 0  0 0.7999999999999998 0  0.2000000000000002 0.7999999999999998 0  0.3999999999999999 0.7999999999999998 0  0.6000000000000001 0.7999999999999998 0  0.7999999999999998 0.7999999999999998 0  1 0.7999999999999998 0  1.2 0.7999999999999998 0  1.4 0.7999999999999998 0  1.6 0.7999999999999998 0  1.8 0.7999999999999998 0  2 0.7999999999999998 0  -2 1 0  -1.8 1 0  -1.6 1 0  -1.4 1 0  -1.2 1 0  -1 1 0  -0.8 1 0  -0.6000000000000001 1 0  -0.3999999999999999 1 0  -0.2 1 0  0 1 0  0.2000000000000002 1 0  0.3999999999999999 1 0  0.6000000000000001 1 0  0.7999999999999998 1 0  1 1 0  1.2 1 0  1.4 1 0  1.6 1 0  1.8 1 0  2 1 0  -2 1.2 0  -1.8 1.2 0  -1.6 1.2 0  -1.4 1.2 0  -1.2 1.2 0  -1 1.2 0  -0.8 1.2 0  -0.6000000000000001 1.2 0  -0.3999999999999999 1.2 0  -0.2 1.2 0  0 1.2 0  0.2000000000000002 1.2 0  0.3999999999999999 1.2 0  0.6000000000000001 1.2 0  0.7999999999999998 1.2 0  1 1.2 0  1.2 1.2 0  1.4 1.2 0  1.6 1.2 0  1.8 1.2 0  2 1.2 0  -2 1.4 0  -1.8 1.4 0  -1.6 1.4 0  -1.4 1.4 0  -1.2 1.4 0  -1 1.4 0  -0.8 1.4 0  -0.6000000000000001 1.4 0  -0.3999999999999999 1.4 0  -0.2 1.4 0  0 1.4 0  0.2000000000000002 1.4 0  0.3999999999999999 1.4 0  0.6000000000000001 1.4 0  0.7999999999999998 1.4 0  1 1.4 0  1.2 1.4 0  1.4 1.4 0  1.6 1.4 0  1.8 1.4 0  2 1.4 0  -2 1.6 0  -1.8 1.6 0  -1.6 1.6 0  -1.4 1.6 0  -1.2 1.6 0  -1 1.6 0  -0.8 1.6 0  -0.6000000000000001 1.6 0  -0.3999999999999999 1.6 0  -0.2 1.6 0  0 1.6 0  0.2000000000000002 1.6 0  0.3999999999999999 1.6 0  0.6000000000000001 1.6 0  0.7999999999999998 1.6 0  1 1.6 0  1.2 1.6 0  1.4 1.6 0  1.6 1.6 0  1.8 1.6 0  2 1.6 0  -2 1.8 0  -1.8 1.8 0  -1.6 1.8 0  -1.4 1.8 0  -1.2 1.8 0  -1 1.8 0  -0.8 1.8 0  -0.6000000000000001 1.8 0  -0.3999999999999999 1.8 0  -0.2 1.8 0  0 1.8 0  0.2000000000000002 1.8 0  0.3999999999999999 1.8 0  0.6000000000000001 1.8 0  0.7999999999999998 1.8 0  1 1.8 0  1.2 1.8 0  1.4 1.8 0  1.6 1.8 0  1.8 1.8 0  2 1.8 0  -2 2 0  -1.8 2 0  -1.6 2 0  -1.4 2 0  -1.2 2 0  -1 2 0  -0.8 2 0  -0.6000000000000001 2 0  -0.3999999999999999 2 0  -0.2 2 0  0 2 0  0.2000000000000002 2 0  0.3999999999999999 2 0  0.6000000000000001 2 0  0.7999999999999998 2 0  1 2 0  1.2 2 0  1.4 2 0  1.6 2 0  1.8 2 0  2 2 0  </DataArray>
</Points>
<Cells>
[...]
<PointData  Scalars="f_8"> 
<DataArray  type="Float64"  Name="f_8"  format="ascii">3.7791848736490732e-02  3.7792651829883631e-02  3.7792987055858838e-02  3.7793161300415851e-02  3.7793265370230332e-02  3.7793332476890727e-02  3.7793377672636991e-02  3.7793409110900955e-02  3.7793431853925578e-02  3.7793449418900948e-02  3.7793464533449450e-02  3.7793479585484506e-02  3.7793496962581052e-02  3.7793519390747772e-02  3.7793550382085858e-02  3.7793594984820308e-02  3.7793661316034816e-02  3.7793764335943621e-02  3.7793937035169804e-02  3.7794269824453310e-02  3.7795070146501547e-02  3.7797668280140945e-02  3.7797853880545969e-02  3.7798033135436983e-02  3.7798160372291265e-02  3.7798246786863075e-02  3.7798305662554994e-02  3.7798346298050393e-02  3.7798374865936603e-02  3.7798395603547433e-02  3.7798411612475727e-02  3.7798425365027533e-02  3.7798439052162569e-02  3.7798454864421904e-02  3.7798475272469996e-02  3.7798503373837861e-02  3.7798543397476202e-02  3.7798601502230890e-02  3.7798686975875642e-02  3.7798813143429436e-02  3.7798991467032590e-02  3.7799176946366191e-02  3.7812752894398269e-02  3.7812773622583978e-02  3.7812841119506939e-02  3.7812908066518242e-02  3.7812961872080109e-02  3.7813002008336309e-02  3.7813031055360248e-02  3.7813051910007660e-02  3.7813067103107133e-02  3.7813078750092724e-02  3.7813088667330595e-02  3.7813098520854418e-02  3.7813109977211205e-02  3.7813124854488331e-02  3.7813145271891974e-02  3.7813173768787102e-02  3.7813213263103385e-02  3.7813266388296365e-02  3.7813332743551059e-02  3.7813399989867956e-02  3.7813421133087763e-02  3.7836839587175965e-02  3.7836801933464136e-02  3.7836805058523465e-02  3.7836823717594691e-02  3.7836844743149502e-02  3.7836862957077423e-02  3.7836877055742228e-02  3.7836887329302023e-02  3.7836894621534674e-02  3.7836899913350402e-02  3.7836904185935424e-02  3.7836908400600819e-02  3.7836913520418000e-02  3.7836920532414220e-02  3.7836930429382687e-02  3.7836944077293370e-02  3.7836961806903137e-02  3.7836982386674552e-02  3.7837000756421171e-02  3.7837003907620063e-02  3.7836966730457555e-02  3.7869243462854155e-02  3.7869176949833466e-02  3.7869141868194942e-02  3.7869125757517649e-02  3.7869119249256539e-02  3.7869116808849447e-02  3.7869115616541382e-02  3.7869114430002071e-02  3.7869112830523986e-02  3.7869110797903921e-02  3.7869108490252552e-02  3.7869106133047177e-02  3.7869103954450103e-02  3.7869102121241463e-02  3.7869100629819893e-02  3.7869099089516280e-02  3.7869096302463510e-02  3.7869089514732369e-02  3.7869073278538307e-02  3.7869038316550196e-02  3.7868972223364626e-02  3.7909035378805342e-02  3.7908950818649277e-02  3.7908891471985465e-02  3.7908850940187484e-02  3.7908823074365113e-02  3.7908803235127013e-02  3.7908788312370441e-02  3.7908776338472470e-02  3.7908766088176615e-02  3.7908756778158081e-02  3.7908747865412935e-02  3.7908738912449558e-02  3.7908729484789697e-02  3.7908719048940311e-02  3.7908706838958924e-02  3.7908691656903089e-02  3.7908671574414660e-02  3.7908643532769189e-02  3.7908602951019187e-02  3.7908543731818574e-02  3.7908459499754521e-02  3.7955107061297351e-02  3.7955010180705712e-02  3.7954934836106680e-02  3.7954877444291546e-02  3.7954833917808510e-02  3.7954800589904039e-02  3.7954774525610357e-02  3.7954753490873905e-02  3.7954735797200698e-02  3.7954720131771029e-02  3.7954705410776279e-02  3.7954690658719127e-02  3.7954674902869058e-02  3.7954657068001746e-02  3.7954635856455025e-02  3.7954609602346943e-02  3.7954576101951347e-02  3.7954532456709870e-02  3.7954475037265872e-02  3.7954399785355954e-02  3.7954303128146620e-02  3.8006212310125125e-02  3.8006107270253914e-02  3.8006021639358976e-02  3.8005953175807954e-02  3.8005898998547213e-02  3.8005856176869780e-02  3.8005822050345285e-02  3.8005794332375435e-02  3.8005771089789302e-02  3.8005750667791202e-02  3.8005731598098294e-02  3.8005712505757849e-02  3.8005692017915566e-02  3.8005668672724549e-02  3.8005640826493534e-02  3.8005606562052693e-02  3.8005563613299612e-02  3.8005509343053183e-02  3.8005440842946159e-02  3.8005355248030351e-02  3.8005250321489790e-02  3.8061003679110909e-02  3.8060894084872073e-02  3.8060802691810926e-02  3.8060727910489013e-02  3.8060667529666192e-02  3.8060619095549413e-02  3.8060580179580979e-02  3.8060548519756619e-02  3.8060522064427095e-02  3.8060498954632566e-02  3.8060477472912503e-02  3.8060455976160555e-02  3.8060432822446644e-02  3.8060406297899897e-02  3.8060374549689739e-02  3.8060335534855369e-02  3.8060287002271799e-02  3.8060226535371743e-02  3.8060151691495271e-02  3.8060060267105018e-02  3.8059950674835273e-02  3.8118068772767945e-02  3.8117957981003918e-02  3.8117864756976767e-02  3.8117787812120552e-02  3.8117725270563514e-02  3.8117674940958725e-02  3.8117634541417540e-02  3.8117601845727635e-02  3.8117574753359022e-02  3.8117551300851857e-02  3.8117529634381822e-02  3.8117507959976524e-02  3.8117484483799376e-02  3.8117457352459298e-02  3.8117424603292586e-02  3.8117384136995849e-02  3.8117333729021305e-02  3.8117271099454640e-02  3.8117194058914179e-02  3.8117100732995221e-02  3.8116989833582381e-02  3.8175966660486040e-02  3.8175857867225861e-02  3.8175766413590717e-02  3.8175691100653060e-02  3.8175630157892493e-02  3.8175581481830478e-02  3.8175542844964591e-02  3.8175512040762499e-02  3.8175486960251942e-02  3.8175465612034713e-02  3.8175446102519585e-02  3.8175426592099153e-02  3.8175405240245694e-02  3.8175380150608562e-02  3.8175349327229068e-02  3.8175310654946649e-02  3.8175261919869273e-02  3.8175200886845437e-02  3.8175125445776968e-02  3.8175033822013038e-02  3.8174924815899666e-02  3.8233263952474519e-02  3.8233160206599962e-02  3.8233073922253169e-02  3.8233003819701711e-02  3.8232948038318171e-02  3.8232904404701694e-02  3.8232870654821179e-02  3.8232844578748905e-02  3.8232824090153300e-02  3.8232807237665235e-02  3.8232792177551420e-02  3.8232777123973424e-02  3.8232760289191932e-02  3.8232739823722335e-02  3.8232713766523700e-02  3.8232680017814206e-02  3.8232636351175311e-02  3.8232580484822941e-02  3.8232510229387444e-02  3.8232423713874253e-02  3.8232319656700882e-02  3.8288569811457923e-02  3.8288474011805899e-02  3.8288396182620095e-02  3.8288334762203238e-02  3.8288287580873645e-02  3.8288252228834599e-02  3.8288226317180339e-02  3.8288207616788708e-02  3.8288194102233310e-02  3.8288183935144209e-02  3.8288175414013706e-02  3.8288166907641016e-02  3.8288156782124001e-02  3.8288143327697227e-02  3.8288124691819470e-02  3.8288098828762628e-02  3.8288063483539664e-02  3.8288016238091339e-02  3.8287954655011003e-02  3.8287876545715832e-02  3.8287780344998183e-02  3.8340569105092363e-02  3.8340484017182173e-02  3.8340417936877168e-02  3.8340368697836628e-02  3.8340333514847696e-02  3.8340309545213648e-02  3.8340294196947816e-02  3.8340285231767197e-02  3.8340280748725961e-02  3.8340279113737163e-02  3.8340278871125816e-02  3.8340278652404601e-02  3.8340277085896518e-02  3.8340272706036412e-02  3.8340263861277472e-02  3.8340248624585092e-02  3.8340224722541859e-02  3.8340189520767787e-02  3.8340140133091991e-02  3.8340073741703069e-02  3.8339988172982828e-02  3.8388052896710316e-02  3.8387981239526414e-02  3.8387930448498864e-02  3.8387897135663200e-02  3.8387877421957504e-02  3.8387867802086917e-02  3.8387865444352534e-02  3.8387868170858562e-02  3.8387874317649832e-02  3.8387882577233461e-02  3.8387891859672028e-02  3.8387901175803409e-02  3.8387909533245890e-02  3.8387915831887894e-02  3.8387918745576954e-02  3.8387916580823647e-02  3.8387907116769732e-02  3.8387887464628193e-02  3.8387854053352571e-02  3.8387802947050596e-02  3.8387730740007675e-02  3.8429945455668468e-02  3.8429890182817082e-02  3.8429858988539768e-02  3.8429845971446983e-02  3.8429845413279852e-02  3.8429852944180588e-02  3.8429865583932736e-02  3.8429881404057127e-02  3.8429899168349047e-02  3.8429918057851759e-02  3.8429937482244735e-02  3.8429956950100083e-02  3.8429975967301487e-02  3.8429993934822965e-02  3.8430010016923255e-02  3.8430022948700959e-02  3.8430030755307099e-02  3.8430030386132567e-02  3.8430017375936258e-02  3.8429985905415444e-02  3.8429930024789456e-02  3.8465326824895694e-02  3.8465291998982153e-02  3.8465286638680464e-02  3.8465299534862198e-02  3.8465322141973596e-02  3.8465349303691623e-02  3.8465378299661138e-02  3.8465407848064105e-02  3.8465437433811825e-02  3.8465466922718863e-02  3.8465496355973135e-02  3.8465525841276299e-02  3.8465555484686713e-02  3.8465585321903986e-02  3.8465615207428090e-02  3.8465644604612229e-02  3.8465672191134906e-02  3.8465695172261220e-02  3.8465708264981031e-02  3.8465702746153969e-02  3.8465667269249638e-02  3.8493449317006330e-02  3.8493443065230691e-02  3.8493474295828563e-02  3.8493520796254628e-02  3.8493570723498419e-02  3.8493619216746960e-02  3.8493664864805648e-02  3.8493707716916389e-02  3.8493748359553132e-02  3.8493787536000065e-02  3.8493826012181633e-02  3.8493864546455231e-02  3.8493903896791443e-02  3.8493944827757060e-02  3.8493988079412920e-02  3.8494034230321571e-02  3.8494083309061011e-02  3.8494133850075399e-02  3.8494180858044048e-02  3.8494212206706145e-02  3.8494205300478451e-02  3.8513743515874929e-02  3.8513789255925773e-02  3.8513877681603123e-02  3.8513967801630668e-02  3.8514048174738323e-02  3.8514117853520054e-02  3.8514178720227762e-02  3.8514233044823230e-02  3.8514282856847083e-02  3.8514329874069525e-02  3.8514375582936654e-02  3.8514421352344314e-02  3.8514468551738776e-02  3.8514518669503797e-02  3.8514573427575756e-02  3.8514634862991878e-02  3.8514705256014602e-02  3.8514786491073073e-02  3.8514877559984187e-02  3.8514966702616657e-02  3.8515011965545652e-02  3.8525797299585392e-02  3.8525981135542155e-02  3.8526164299740324e-02  3.8526306432026633e-02  3.8526415699869261e-02  3.8526502638747247e-02  3.8526574744683885e-02  3.8526637035398222e-02  3.8526692976918117e-02  3.8526745120029203e-02  3.8526795507201533e-02  3.8526845953690478e-02  3.8526898275475875e-02  3.8526954517705859e-02  3.8527017237577225e-02  3.8527089915349040e-02  3.8527177599807193e-02  3.8527287853770034e-02  3.8527431339693316e-02  3.8527616295303740e-02  3.8527800753961249e-02  3.8529236374686644e-02  3.8529923939725021e-02  3.8530235889002055e-02  3.8530417542146624e-02  3.8530542075147597e-02  3.8530636427161875e-02  3.8530712866427126e-02  3.8530778064270604e-02  3.8530836178697722e-02  3.8530890110227776e-02  3.8530942116439856e-02  3.8530994178305522e-02  3.8531048277051873e-02  3.8531106671348299e-02  3.8531172264705101e-02  3.8531249222183234e-02  3.8531344230646809e-02  3.8531469594908337e-02  3.8531652371794477e-02  3.8531966318577381e-02  3.8532660384007836e-02  </DataArray> 
</PointData> 
</Piece>
</UnstructuredGrid>
</VTKFile>