<?xml version="1.0"?>
<VTKFile type="UnstructuredGrid"  version="0.1"  >
<UnstructuredGrid>
<Piece  NumberOfPoints="441" NumberOfCells="800">
<Points>
<DataArray  type="Float64"  NumberOfComponents="3"  format="ascii">-2 -2 0  -1.8 -2 0  -1.6 -2 0  -1.4 -2 0  -1.2 -2 0  -1 -2 0  -0.8 -2 0  -0.6000000000000001 -2 0  -0.3999999999999999 -2 0  -0.2 -2 0  0 -2 0  0.2000000000000002 -2 0  0.3999999999999999 -2 0  0.6000000000000001 -2 0  0.7999999999999998 -2 0  1 -2 0  1.2 -2 0  1.4 -2 0  1.6 -2 0  1.8 -2 0  2 -2 0  -2 -1.8 0  -1.8 -1.8 0  -1.6 -1.8 0  -1.4 -1.8 0  -1.2 -1.8 0  -1 -1.8 0  -0.8 -1.8 0  -0.6000000000000001 -1.8 0  -0.3999999999999999 -1.8 0  -0.2 -1.8 0  0 -1.8 0  0.2000000000000002 -1.8 0  0.3999999999999999 -1.8 0  0.6000000000000001 -1.8 0  0.7999999999999998 -1.8 0  1 -1.8 0  1.2 -1.8 0  1.4 -1.8 0  1.6 -1.8 0  1.8 -1.8 0  2 -1.8 0  -2 -1.6 0  -1.8 -1.6 0  -1.6 -1.6 0  -1.4 -1.6 0  -1.2 -1.6 0  -1 -1.6 0  -0.8 -1.6 0  -0.6000000000000001 -1.6 0  -0.3999999999999999 -1.6 0  -0.2 -1.6 0  0 -1.6 0  0.2000000000000002 -1.6 0  0.3999999999999999 -1.6 0  0.6000000000000001 -1.6 0  0.7999999999999998 -1.6 0  1 -1.6 0  1.2 -1.6 0  1.4 -1.6 0  1.6 -1.6 0  1.8 -1.6 0  2 -1.6 0  -2 -1.4 0  -1.8 -1.4 0  -1.6 -1.4 0  -1.4 -1.4 0  -1.2 -1.4 0  -1 -1.4 0  -0.8 -1.4 0  -0.6000000000000001 -1.4 0  -0.3999999999999999 -1.4 0  -0.2 -1.4 0  0 -1.4 0  0.2000000000000002 -1.4 0  0.3999999999999999 -1.4 0  0.6000000000000001 -1.4 0  0.7999999999999998 -1.4 0  1 -1.4 0  1.2 -1.4 0  1.4 -1.4 0  1.6 -1.4 0  1.8 -1.4 0  2 -1.4 0  -2 -1.2 0  -1.8 -1.2 0  -1.6 -1.2 0  -1.4 -1.2 0  -1.2 -1.2 0  -1 -1.2 0  -0.8 -1.2 0  -0.6000000000000001 -1.2 0  -0.3999999999999999 -1.2 0  -0.2 -1.2 0  0 -1.2 0  0.2000000000000002 -1.2 0  0.3999999999999999 -1.2 0  0.6000000000000001 -1.2 0  0.7999999999999998 -1.2 0  1 -1.2 0  1.2 -1.2 0  1.4 -1.2 0  1.6 -1.2 0  1.8 -1.2 0  2 -1.2 0  -2 -1 0  -1.8 -1 0  -1.6 -1 0  -1.4 -1 0  -1.2 -1 0  -1 -1 0  -0.8 -1 0  -0.6000000000000001 -1 0  -0.3999999999999999 -1 0  -0.2 -1 0  0 -1 0  0.2000000000000002 -1 0  0.3999999999999999 -1 0  0.6000000000000001 -1 0  0.7999999999999998 -1 0  1 -1 0  1.2 -1 0  1.4 -1 0  1.6 -1 0  1.8 -1 0  2 -1 0  -2 -0.8 0  -1.8 -0.8 0  -1.6 -0.8 0  -1.4 -0.8 0  -1.2 -0.8 0  -1 -0.8 0  -0.8 -0.8 0  -0.6000000000000001 -0.8 0  -0.3999999999999999 -0.8 0  -0.2 -0.8 0  0 -0.8 0  0.2000000000000002 -0.8 0  0.3999999999999999 -0.8 0  0.6000000000000001 -0.8 0  0.7999999999999998 -0.8 0  1 -0.8 0  1.2 -0.8 0  1.4 -0.8 0  1.6 -0.8 0  1.8 -0.8 0  2 -0.8 0  -2 -0.6000000000000001 0  -1.8 -0.6000000000000001 0  -1.6 -0.6000000000000001 0  -1.4 -0.6000000000000001 0  -1.2 -0.6000000000000001 0  -1 -0.6000000000000001 0  -0.8 -0.6000000000000001 0  -0.6000000000000001 -0.6000000000000001 0  -0.3999999999999999 -0.6000000000000001 0  -0.2 -0.6000000000000001 0  0 -0.6000000000000001 0  0.2000000000000002 -0.6000000000000001 0  0.3999999999999999 -0.6000000000000001 0  0.6000000000000001 -0.6000000000000001 0  0.7999999999999998 -0.6000000000000001 0  1 -0.6000000000000001 0  1.2 -0.6000000000000001 0  1.4 -0.6000000000000001 0  1.6 -0.6000000000000001 0  1.8 -0.6000000000000001 0  2 -0.6000000000000001 0  -2 -0.3999999999999999 0  -1.8 -0.3999999999999999 0  -1.6 -0.3999999999999999 0  -1.4 -0.3999999999999999 0  -1.2 -0.3999999999999999 0  -1 -0.3999999999999999 0  -0.8 -0.3999999999999999 0  -0.6000000000000001 -0.3999999999999999 0  -0.3999999999999999 -0.3999999999999999 0  -0.2 -0.3999999999999999 0  0 -0.3999999999999999 0  0.2000000000000002 -0.3999999999999999 0  0.3999999999999999 -0.3999999999999999 0  0.6000000000000001 -0.3999999999999999 0  0.7999999999999998 -0.3999999999999999 0  1 -0.3999999999999999 0  1.2 -0.3999999999999999 0  1.4 -0.3999999999999999 0  1.6 -0.3999999999999999 0  1.8 -0.3999999999999999 0  2 -0.3999999999999999 0  -2 -0.2 0  -1.8 -0.2 0  -1.6 -0.2 0  -1.4 -0.2 0  -1.2 -0.2 0  -1 -0.2 0  -0.8 -0.2 0  -0.6000000000000001 -0.2 0  -0.3999999999999999 -0.2 0  -0.2 -0.2 0  0 -0.2 0  0.2000000000000002 -0.2 0  0.3999999999999999 -0.2 0  0.6000000000000001 -0.2 0  0.7999999999999998 -0.2 0  1 -0.2 0  1.2 -0.2 0  1.4 -0.2 0  1.6 -0.2 0  1.8 -0.2 0  2 -0.2 0  -2 0 0  -1.8 0 0  -1.6 0 0  -1.4 0 0  -1.2 0 0  -1 0 0  -0.8 0 0  -0.6000000000000001 0 0  -0.3999999999999999 0 0  -0.2 0 0  0 0 0  0.2000000000000002 0 0  0.3999999999999999 0 0  0.6000000000000001 0 0  0.7999999999999998 0 0  1 0 0  1.2 0 0  1.4 0 0  1.6 0 0  1.8 0 0  2 0 0  -2 0.2000000000000002 0  -1.8 0.2000000000000002 0  -1.6 0.2000000000000002 0  -1.4 0.2000000000000002 0  -1.2 0.2000000000000002 0  -1 0.2000000000000002 0  -0.8 0.2000000000000002 0  -0.6000000000000001 0.2000000000000002 0  -0.3999999999999999 0.2000000000000002 0  -0.2 0.2000000000000002 0  0 0.2000000000000002 0  0.2000000000000002 0.2000000000000002 0  0.3999999999999999 0.2000000000000002 0  0.6000000000000001 0.2000000000000002 0  0.7999999999999998 0.2000000000000002 0  1 0.2000000000000002 0  1.2 0.2000000000000002 0  1.4 0.2000000000000002 0  1.6 0.2000000000000002 0  1.8 0.2000000000000002 0  2 0.2000000000000002 0  -2 0.3999999999999999 0  -1.8 0.3999999999999999 0  -1.6 0.3999999999999999 0  -1.4 0.3999999999999999 0  -1.2 0.3999999999999999 0  -1 0.3999999999999999 0  -0.8 0.3999999999999999 0  -0.6000000000000001 0.3999999999999999 0  -0.3999999999999999 0.3999999999999999 0  -0.2 0.3999999999999999 0  0 0.3999999999999999 0  0.2000000000000002 0.3999999999999999 0  0.3999999999999999 0.3999999999999999 0  0.6000000000000001 0.3999999999999999 0  0.7999999999999998 0.3999999999999999 0  1 0.3999999999999999 0  1.2 0.3999999999999999 0  1.4 0.3999999999999999 0  1.6 0.3999999999999999 0  1.8 0.3999999999999999 0  2 0.3999999999999999 0  -2 0.6000000000000001 0  -1.8 0.6000000000000001 0  -1.6 0.6000000000000001 0  -1.4 0.6000000000000001 0  -1.2 0.6000000000000001 0  -1 0.6000000000000001 0  -0.8 0.6000000000000001 0  -0.6000000000000001 0.6000000000000001 0  -0.3999999999999999 0.6000000000000001 0  -0.2 0.6000000000000001 0  0 0.6000000000000001 0  0.2000000000000002 0.6000000000000001 0  0.3999999999999999 0.6000000000000001 0  0.6000000000000001 0.6000000000000001 0  0.7999999999999998 0.6000000000000001 0  1 0.6000000000000001 0  1.2 0.6000000000000001 0  1.4 0.6000000000000001 0  1.6 0.6000000000000001 0  1.8 0.6000000000000001 0  2 0.6000000000000001 0  -2 0.7999999999999998 0  -1.8 0.7999999999999998 0  -1.6 0.7999999999999998 0  -1.4 0.7999999999999998 0  -1.2 0.7999999999999998 0  -1 0.7999999999999998 0  -0.8 0.7999999999999998 0  -0.6000000000000001 0.7999999999999998 0  -0.3999999999999999 0.7999999999999998 0  -0.2 0.7999999999999998 0  0 0.7999999999999998 0  0.2000000000000002 0.7999999999999998 0  0.3999999999999999 0.7999999999999998 0  0.6000000000000001 0.7999999999999998 0  0.7999999999999998 0.7999999999999998 0  1 0.7999999999999998 0  1.2 0.7999999999999998 0  1.4 0.7999999999999998 0  1.6 0.7999999999999998 0  1.8 0.7999999999999998 0  2 0.7999999999999998 0  -2 1 0  -1.8 1 0  -1.6 1 0  -1.4 1 0  -1.2 1 0  -1 1 0  -0.8 1 0  -0.6000000000000001 1 0  -0.3999999999999999 1 0  -0.2 1 0  0 1 0  0.2000000000000002 1 0  0.3999999999999999 1 0  0.6000000000000001 1 0  0.7999999999999998 1 0  1 1 0  1.2 1 0  1.4 1 0  1.6 1 0  1.8 1 0  2 1 0  -2 1.2 0  -1.8 1.2 0  -1.6 1.2 0  -1.4 1.2 0  -1.2 1.2 0  -1 1.2 0  -0.8 1.2 0  -0.6000000000000001 1.2 0  -0.3999999999999999 1.2 0  -0.2 1.2 0  0 1.2 0  0.2000000000000002 1.2 0  0.3999999999999999 1.2 0  0.6000000000000001 1.2 0  0.7999999999999998 1.2 0  1 1.2 0  1.2 1.2 0  1.4 1.2 0  1.6 1.2 0  1.8 1.2 0  2 1.2 0  -2 1.4 0  -1.8 1.4 0  -1.6 1.4 0  -1.4 1.4 0  -1.2 1.4 0  -1 1.4 0  -0.8 1.4 0  -0.6000000000000001 1.4 0  -0.3999999999999999 1.4 0  -0.2 1.4 0  0 1.4 0  0.2000000000000002 1.4 0  0.3999999999999999 1.4 0  0.6000000000000001 1.4 0  0.7999999999999998 1.4 0  1 1.4 0  1.2 1.4 0  1.4 1.4 0  1.6 1.4 0  1.8 1.4 0  2 1.4 0  -2 1.6 0  -1.8 1.6 0  -1.6 1.6 0  -1.4 1.6 0  -1.2 1.6 0  -1 1.6 0  -0.8 1.6 0  -0.6000000000000001 1.6 0  -0.3999999999999999 1.6 0  -0.2 1.6 0  0 1.6 0  0.2000000000000002 1.6 0  0.3999999999999999 1.6 0  0.6000000000000001 1.6 0  0.7999999999999998 1.6 0  1 1.6 0  1.2 1.6 0  1.4 1.6 0  1.6 1.6 0  1.8 1.6 0  2 1.6 0  -2 1.8 0  -1.8 1.8 0  -1.6 1.8 0  -1.4 1.8 0  -1.2 1.8 0  -1 1.8 0  -0.8 1.8 0  -0.6000000000000001 1.8 0  -0.3999999999999999 1.8 0  -0.2 1.8 0  0 1.8 0  0.2000000000000002 1.8 0  0.3999999999999999 1.8 0  0.6000000000000001 1.8 0  0.7999999999999998 1.8 0  1 1.8 0  1.2 1.8 0  1.4 1.8 0  1.6 1.8 0  1.8 1.8 0  2 1.8 0  -2 2 0  -1.8 2 0  -1.6 2 0  -1.4 2 0  -1.2 2 0  -1 2 0  -0.8 2 0  -0.6000000000000001 2 0  -0.3999999999999999 2 0  -0.2 2 0  0 2 0  0.2000000000000002 2 0  0.3999999999999999 2 0  0.6000000000000001 2 0  0.7999999999999998 2 0  1 2 0  1.2 2 0  1.4 2 0  1.6 2 0  1.8 2 0  2 2 0  </DataArray>
</Points>
<Cells>
[...]
<PointData  Scalars="f_8"> 
<DataArray  type="Float64"  Name="f_8"  format="ascii">8.4967386125131272e-02  8.3461071893716710e-02  7.9798191412677910e-02  7.4253498554289601e-02  6.7244489474558383e-02  5.9272100312232769e-02  5.0857922918875441e-02  4.2487196898341302e-02  3.4565029860261831e-02  2.7390084683034860e-02  2.1146352257519728e-02  1.5910507695940518e-02  1.1670328564704683e-02  8.3489406451821516e-03  5.8300980502465133e-03  3.9809186338128485e-03  2.6700282763851948e-03  1.7805241062254268e-03  1.2182883251698512e-03  9.1686522752320741e-04  8.4037531210360411e-04  8.4408824337520269e-02  8.3218259737724107e-02  7.9772247915606637e-02  7.4369649526542958e-02  6.7441937576011482e-02  5.9500801040200821e-02  5.1078559415759874e-02  4.2671954470249650e-02  3.4697791372065086e-02  2.7465484557431537e-02  2.1167729504351997e-02  1.5887162991783794e-02  1.1614621722415704e-02  8.2737071107894192e-03  5.7466873154088660e-03  3.8979385178808021e-03  2.5926743463683022e-03  1.7102101812646120e-03  1.1521653471174191e-03  8.4668311891854091e-04  7.4993546104280319e-04  8.4362018111492368e-02  8.3194202080624974e-02  7.9789363264732321e-02  7.4426472933878482e-02  6.7526170462107293e-02  5.9595759898320166e-02  5.1167846910758041e-02  4.2742581079722654e-02  3.4741819221574634e-02  2.7480338302318035e-02  2.1155462483052664e-02  1.5853075149915519e-02  1.1565648595944679e-02  8.2169338511954449e-03  5.6882179355000929e-03  3.8422108353712925e-03  2.5421946267340343e-03  1.6656147049073692e-03  1.1125124777605056e-03  8.0994655743759335e-04  7.1382196090026074e-04  8.4388554956847245e-02  8.3223289756541766e-02  7.9824160600523414e-02  7.4466765756264430e-02  6.7568742224651229e-02  5.9635691427062480e-02  5.1200044261339638e-02  4.2763067986812217e-02  3.4748531736530662e-02  2.7473343702170049e-02  2.1136676800422392e-02  1.5825651933163699e-02  1.1533245242663206e-02  8.1830376667158099e-03  5.6556522777674763e-03  3.8128680442759129e-03  2.5169794030786051e-03  1.6445428402595272e-03  1.0948984848845995e-03  7.9462374864073518e-04  6.9935635285623310e-04  8.4412050949607007e-02  8.3246835231728822e-02  7.9847353026673368e-02  7.4488727660900256e-02  6.7588142984840380e-02  5.9651016657996263e-02  5.1209975964427799e-02  4.2766828136201578e-02  3.4746081535172162e-02  2.7465394048354477e-02  2.1124528506139880e-02  1.5810928669458640e-02  1.1517599187435255e-02  8.1678986513541406e-03  5.6420646960739802e-03  3.8014277935169219e-03  2.5078561579120295e-03  1.6375572209273432e-03  1.0896204086578130e-03  7.9046481608623488e-04  6.9564099686735177e-04  8.4422593959686140e-02  8.3257196595752633e-02  7.9857035490134537e-02  7.4497209229595865e-02  6.7594915116274981e-02  5.9655658893223586e-02  5.1212241839743336e-02  4.2766709709853641e-02  3.4743827314731128e-02  2.7461471975703696e-02  2.1119544045958758e-02  1.5805521005594677e-02  1.1512342367253136e-02  8.1632294690154959e-03  5.6382484370782774e-03  3.7985611453010895e-03  2.5058974605984019e-03  1.6363698417843238e-03  1.0890154490303199e-03  7.9023326370751903e-04  6.9557095392002214e-04  8.4425606934983410e-02  8.3260109285387324e-02  7.9859659007097933e-02  7.4499372074307527e-02  6.7596481900918853e-02  5.9656550025966919e-02  5.1212448774246286e-02  4.2766299769447784e-02  3.4742934500310726e-02  2.7460274494455868e-02  2.1118233624844711e-02  1.5804271585701562e-02  1.1511285633396722e-02  8.1624421404547683e-03  5.6377524915686541e-03  3.7983345967204855e-03  2.5058910510728197e-03  1.6365244610693484e-03  1.0892760126919117e-03  7.9055652958496723e-04  6.9592665169999391e-04  8.4426093544863037e-02  8.3260561010138553e-02  7.9860036299735565e-02  7.4499643624688874e-02  6.7596629334530478e-02  5.9656571238596252e-02  5.1212358870553150e-02  4.2766128871533679e-02  3.4742722456606680e-02  2.7460063483519610e-02  2.1118060397408860e-02  1.5804161278121058e-02  1.1511248619657917e-02  8.1624744562533939e-03  5.6378393316445334e-03  3.7984556269862651e-03  2.5060260068210435e-03  1.6366577189560270e-03  1.0893993464603454e-03  7.9066983827362025e-04  6.9603688310635879e-04  8.4426101721626276e-02  8.3260560964348571e-02  7.9860024936822080e-02  7.4499619883315035e-02  6.7596594670540355e-02  5.9656529652697382e-02  5.1212316377237416e-02  4.2766092432031284e-02  3.4742698565260126e-02  2.7460056742024164e-02  2.1118072462988770e-02  1.5804190489985357e-02  1.1511290411722804e-02  8.1625224257492659e-03  5.6378866456130213e-03  3.7984963810534875e-03  2.5060562185157424e-03  1.6366758003435265e-03  1.0894060838305309e-03  7.9066803733519333e-04  6.9603087452476406e-04  8.4426089301876464e-02  8.3260547562305345e-02  7.9860011131570194e-02  7.4499606522440615e-02  6.7596582799105936e-02  5.9656520371149560e-02  5.1212310643032319e-02  4.2766090842142099e-02  3.4742701174925610e-02  2.7460062978882094e-02  2.1118081177976589e-02  1.5804200148710295e-02  1.1511299384407406e-02  8.1625292983606747e-03  5.6378904649985427e-03  3.7984967682221705e-03  2.5060533289707606e-03  1.6366701614670283e-03  1.0893983779204617e-03  7.9065891210615879e-04  6.9602084778570968e-04  8.4426088443558547e-02  8.3260546749680100e-02  7.9860010483656055e-02  7.4499606163850263e-02  6.7596582831329521e-02  5.9656520842305376e-02  5.1212311523070007e-02  4.2766092011344847e-02  3.4742702432312401e-02  2.7460064073086921e-02  2.1118081856776352e-02  1.5804200216407861e-02  1.1511298751536626e-02  8.1625280081648183e-03  5.6378886866540901e-03  3.7984947562783849e-03  2.5060513585787978e-03  1.6366684560443689e-03  1.0893970477238958e-03  7.9065791883780841e-04  6.9602000377658451e-04  8.4426089821751066e-02  8.3260548013635499e-02  7.9860011684080981e-02  7.4499607327260423e-02  6.7596583950047778e-02  5.9656521875434347e-02  5.1212312406813072e-02  4.2766092675532365e-02  3.4742702819101925e-02  2.7460064153565826e-02  2.1118081641648773e-02  1.5804199758147664e-02  1.1511298137268922e-02  8.1625273447898088e-03  5.6378880817734159e-03  3.7984942996379771e-03  2.5060511084913726e-03  1.6366684335481730e-03  1.0893972386046488e-03  7.9065828106395799e-04  6.9602047642132849e-04  8.4426080522351732e-02  8.3260539335151429e-02  7.9860004491750985e-02  7.4499602184455199e-02  6.7596581107679340e-02  5.9656521297442471e-02  5.1212313821809373e-02  4.2766095645364648e-02  3.4742706815717957e-02  2.7460068635422930e-02  2.1118086120581893e-02  1.5804203848381163e-02  1.1511301581128942e-02  8.1625300144652323e-03  5.6378899617598524e-03  3.7984954583207792e-03  2.5060516681868331e-03  1.6366685459286885e-03  1.0893970678157985e-03  7.9065799192985125e-04  6.9602022200905621e-04  8.4426018832751609e-02  8.3260482639140210e-02  7.9859953813145493e-02  7.4499558075609915e-02  6.7596543946898346e-02  5.9656491439335144e-02  5.1212291582681438e-02  4.2766081164810489e-02  3.4742699877820991e-02  2.7460068541350607e-02  2.1118091676805065e-02  1.5804213485525846e-02  1.1511313569940613e-02  8.1625427162667977e-03  5.6379020481801484e-03  3.7985060535520076e-03  2.5060603940510167e-03  1.6366754733915165e-03  1.0894025919498639e-03  7.9066265165139173e-04  6.9602448695453697e-04  8.4426036374689095e-02  8.3260503975062211e-02  7.9859956297419737e-02  7.4499524009669221e-02  6.7596463489825356e-02  5.9656363916676489e-02  5.1212124948526574e-02  4.2765889778106594e-02  3.4742501184630577e-02  2.7459879523212882e-02  2.1117925918144254e-02  1.5804079445203470e-02  1.1511214234643305e-02  8.1624764231610324e-03  5.6378640113876489e-03  3.7984900583107164e-03  2.5060602067015509e-03  1.6366856875799352e-03  1.0894188229740795e-03  7.9068115622298138e-04  6.9604140721011665e-04  8.4427635707546522e-02  8.3262035338790064e-02  7.9861259377270927e-02  7.4500467679556481e-02  6.7596960300027042e-02  5.9656380315439510e-02  5.1211684097156811e-02  4.2765065228594766e-02  3.4741402266439243e-02  2.7458631732454667e-02  2.1116650863252859e-02  1.5802878599406253e-02  1.1510159192711271e-02  8.1616062840431988e-03  5.6371886661068455e-03  3.7979970535501344e-03  2.5057226173437678e-03  1.6364689073151922e-03  1.0892850642472071e-03  7.9059142755355701e-04  6.9595557169118371e-04  8.4436186793761775e-02  8.3270270121519566e-02  7.9868648261994593e-02  7.4506521183741417e-02  6.7601274747543988e-02  5.9658696582226285e-02  5.1211935487161769e-02  4.2763393966068465e-02  3.4738136202962913e-02  2.7454226807734562e-02  2.1111614932091963e-02  1.5797695611694355e-02  1.1505229642414679e-02  8.1572127411167136e-03  5.6334872160859551e-03  3.7950291956137445e-03  2.5034389778701930e-03  1.6347560897270359e-03  1.0879892552828180e-03  7.8953580990592819e-04  6.9495196469300557e-04  8.4460430824311983e-02  8.3294066332569874e-02  7.9891275192336270e-02  7.4526913740988854e-02  6.7618140136752755e-02  5.9670798406684135e-02  5.1218405293402186e-02  4.2763953591949844e-02  3.4733168543249690e-02  2.7444691731819227e-02  2.1098852575714231e-02  1.5783181514487259e-02  1.1490344836094749e-02  8.1430735412936876e-03  5.6208539563059210e-03  3.7842896415058043e-03  2.4946466523267522e-03  1.6276982367862194e-03  1.0822623807982105e-03  7.8461538453834269e-04  6.9025283227939539e-04  8.4495822465333742e-02  8.3331515758998442e-02  7.9932902931392324e-02  7.4571621906316221e-02  6.7662334380518899e-02  5.9709767196174025e-02  5.1247736516976138e-02  4.2780607208225990e-02  3.4736025227793808e-02  2.7434568844498710e-02  2.1078104700556283e-02  1.5755069085119235e-02  1.1458360082863042e-02  8.1103719433443834e-03  5.5898741825409553e-03  3.7565789346327089e-03  2.4708591051113295e-03  1.6077087887290938e-03  1.0653395398127245e-03  7.6961465333995512e-04  6.7582089669241904e-04  8.4465225040680589e-02  8.3324952830960239e-02  7.9965754299477262e-02  7.4640831164818316e-02  6.7755002640837420e-02  5.9809313123399731e-02  5.1338342897910873e-02  4.2850140167474314e-02  3.4777493206778157e-02  2.7446278501401002e-02  2.1062816857749255e-02  1.5718560032405390e-02  1.1407806608978768e-02  8.0529039507432083e-03  5.5315088726984258e-03  3.7016086830067929e-03  2.4216492968244358e-03  1.5647959853843218e-03  1.0277143914966941e-03  7.3513165161889218e-04  6.4180855185616754e-04  8.3915382238707800e-02  8.3085847569442872e-02  7.9942433286627659e-02  7.4760965271030821e-02  6.7958803334009693e-02  6.0046493789143042e-02  5.1568463672617595e-02  4.3043872603234640e-02  3.4917305157522116e-02  2.7525857986004234e-02  2.1085202440755919e-02  1.5693374839471627e-02  1.1348181864236778e-02  7.9726522800963266e-03  5.4429338257880790e-03  3.6140968980168295e-03  2.3409562393033384e-03  1.4927456444047708e-03  9.6188985515420467e-04  6.6800173599642146e-04  5.5854495325456731e-04  </DataArray> 
</PointData> 
</Piece>
</UnstructuredGrid>
</VTKFile>