<?xml version="1.0"?>
<VTKFile type="UnstructuredGrid"  version="0.1"  >
<UnstructuredGrid>
<Piece  NumberOfPoints="441" NumberOfCells="800">
<Points>
<DataArray  type="Float64"  NumberOfComponents="3"  format="ascii">-2 -2 0  -1.8 -2 0  -1.6 -2 0  -1.4 -2 0  -1.2 -2 0  -1 -2 0  -0.8 -2 0  -0.6000000000000001 -2 0  -0.3999999999999999 -2 0  -0.2 -2 0  0 -2 0  0.2000000000000002 -2 0  0.3999999999999999 -2 0  0.6000000000000001 -2 0  0.7999999999999998 -2 0  1 -2 0  1.2 -2 0  1.4 -2 0  1.6 -2 0  1.8 -2 0  2 -2 0  -2 -1.8 0  -1.8 -1.8 0  -1.6 -1.8 0  -1.4 -1.8 0  -1.2 -1.8 0  -1 -1.8 0  -0.8 -1.8 0  -0.6000000000000001 -1.8 0  -0.3999999999999999 -1.8 0  -0.2 -1.8 0  0 -1.8 0  0.2000000000000002 -1.8 0  0.3999999999999999 -1.8 0  0.6000000000000001 -1.8 0  0.7999999999999998 -1.8 0  1 -1.8 0  1.2 -1.8 0  1.4 -1.8 0  1.6 -1.8 0  1.8 -1.8 0  2 -1.8 0  -2 -1.6 0  -1.8 -1.6 0  -1.6 -1.6 0  -1.4 -1.6 0  -1.2 -1.6 0  -1 -1.6 0  -0.8 -1.6 0  -0.6000000000000001 -1.6 0  -0.3999999999999999 -1.6 0  -0.2 -1.6 0  0 -1.6 0  0.2000000000000002 -1.6 0  0.3999999999999999 -1.6 0  0.6000000000000001 -1.6 0  0.7999999999999998 -1.6 0  1 -1.6 0  1.2 -1.6 0  1.4 -1.6 0  1.6 -1.6 0  1.8 -1.6 0  2 -1.6 0  -2 -1.4 0  -1.8 -1.4 0  -1.6 -1.4 0  -1.4 -1.4 0  -1.2 -1.4 0  -1 -1.4 0  -0.8 -1.4 0  -0.6000000000000001 -1.4 0  -0.3999999999999999 -1.4 0  -0.2 -1.4 0  0 -1.4 0  0.2000000000000002 -1.4 0  0.3999999999999999 -1.4 0  0.6000000000000001 -1.4 0  0.7999999999999998 -1.4 0  1 -1.4 0  1.2 -1.4 0  1.4 -1.4 0  1.6 -1.4 0  1.8 -1.4 0  2 -1.4 0  -2 -1.2 0  -1.8 -1.2 0  -1.6 -1.2 0  -1.4 -1.2 0  -1.2 -1.2 0  -1 -1.2 0  -0.8 -1.2 0  -0.6000000000000001 -1.2 0  -0.3999999999999999 -1.2 0  -0.2 -1.2 0  0 -1.2 0  0.2000000000000002 -1.2 0  0.3999999999999999 -1.2 0  0.6000000000000001 -1.2 0  0.7999999999999998 -1.2 0  1 -1.2 0  1.2 -1.2 0  1.4 -1.2 0  1.6 -1.2 0  1.8 -1.2 0  2 -1.2 0  -2 -1 0  -1.8 -1 0  -1.6 -1 0  -1.4 -1 0  -1.2 -1 0  -1 -1 0  -0.8 -1 0  -0.6000000000000001 -1 0  -0.3999999999999999 -1 0  -0.2 -1 0  0 -1 0  0.2000000000000002 -1 0  0.3999999999999999 -1 0  0.6000000000000001 -1 0  0.7999999999999998 -1 0  1 -1 0  1.2 -1 0  1.4 -1 0  1.6 -1 0  1.8 -1 0  2 -1 0  -2 -0.8 0  -1.8 -0.8 0  -1.6 -0.8 0  -1.4 -0.8 0  -1.2 -0.8 0  -1 -0.8 0  -0.8 -0.8 0  -0.6000000000000001 -0.8 0  -0.3999999999999999 -0.8 0  -0.2 -0.8 0  0 -0.8 0  0.2000000000000002 -0.8 0  0.3999999999999999 -0.8 0  0.6000000000000001 -0.8 0  0.7999999999999998 -0.8 0  1 -0.8 0  1.2 -0.8 0  1.4 -0.8 0  1.6 -0.8 0  1.8 -0.8 0  2 -0.8 0  -2 -0.6000000000000001 0  -1.8 -0.6000000000000001 0  -1.6 -0.6000000000000001 0  -1.4 -0.6000000000000001 0  -1.2 -0.6000000000000001 0  -1 -0.6000000000000001 0  -0.8 -0.6000000000000001 0  -0.6000000000000001 -0.6000000000000001 0  -0.3999999999999999 -0.6000000000000001 0  -0.2 -0.6000000000000001 0  0 -0.6000000000000001 0  0.2000000000000002 -0.6000000000000001 0  0.3999999999999999 -0.6000000000000001 0  0.6000000000000001 -0.6000000000000001 0  0.7999999999999998 -0.6000000000000001 0  1 -0.6000000000000001 0  1.2 -0.6000000000000001 0  1.4 -0.6000000000000001 0  1.6 -0.6000000000000001 0  1.8 -0.6000000000000001 0  2 -0.6000000000000001 0  -2 -0.3999999999999999 0  -1.8 -0.3999999999999999 0  -1.6 -0.3999999999999999 0  -1.4 -0.3999999999999999 0  -1.2 -0.3999999999999999 0  -1 -0.3999999999999999 0  -0.8 -0.3999999999999999 0  -0.6000000000000001 -0.3999999999999999 0  -0.3999999999999999 -0.3999999999999999 0  -0.2 -0.3999999999999999 0  0 -0.3999999999999999 0  0.2000000000000002 -0.3999999999999999 0  0.3999999999999999 -0.3999999999999999 0  0.6000000000000001 -0.3999999999999999 0  0.7999999999999998 -0.3999999999999999 0  1 -0.3999999999999999 0  1.2 -0.3999999999999999 0  1.4 -0.3999999999999999 0  1.6 -0.3999999999999999 0  1.8 -0.3999999999999999 0  2 -0.3999999999999999 0  -2 -0.2 0  -1.8 -0.2 0  -1.6 -0.2 0  -1.4 -0.2 0  -1.2 -0.2 0  -1 -0.2 0  -0.8 -0.2 0  -0.6000000000000001 -0.2 0  -0.3999999999999999 -0.2 0  -0.2 -0.2 0  0 -0.2 0  0.2000000000000002 -0.2 0  0.3999999999999999 -0.2 0  0.6000000000000001 -0.2 0  0.7999999999999998 -0.2 0  1 -0.2 0  1.2 -0.2 0  1.4 -0.2 0  1.6 -0.2 0  1.8 -0.2 0  2 -0.2 0  -2 0 0  -1.8 0 0  -1.6 0 0  -1.4 0 0  -1.2 0 0  -1 0 0  -0.8 0 0  -0.6000000000000001 0 0  -0.3999999999999999 0 0  -0.2 0 0  0 0 0  0.2000000000000002 0 0  0.3999999999999999 0 0  0.6000000000000001 0 0  0.7999999999999998 0 0  1 0 0  1.2 0 0  1.4 0 0  1.6 0 0  1.8 0 0  2 0 0  -2 0.2000000000000002 0  -1.8 0.2000000000000002 0  -1.6 0.2000000000000002 0  -1.4 0.2000000000000002 0  -1.2 0.2000000000000002 0  -1 0.2000000000000002 0  -0.8 0.2000000000000002 0  -0.6000000000000001 0.2000000000000002 0  -0.3999999999999999 0.2000000000000002 0  -0.2 0.2000000000000002 0  0 0.2000000000000002 0  0.2000000000000002 0.2000000000000002 0  0.3999999999999999 0.2000000000000002 0  0.6000000000000001 0.2000000000000002 0  0.7999999999999998 0.2000000000000002 0  1 0.2000000000000002 0  1.2 0.2000000000000002 0  1.4 0.2000000000000002 0  1.6 0.2000000000000002 0  1.8 0.2000000000000002 0  2 0.2000000000000002 0  -2 0.3999999999999999 0  -1.8 0.3999999999999999 0  -1.6 0.3999999999999999 0  -1.4 0.3999999999999999 0  -1.2 0.3999999999999999 0  -1 0.3999999999999999 0  -0.8 0.3999999999999999 0  -0.6000000000000001 0.3999999999999999 0  -0.3999999999999999 0.3999999999999999 0  -0.2 0.3999999999999999 0  0 0.3999999999999999 0  0.2000000000000002 0.3999999999999999 0  0.3999999999999999 0.3999999999999999 0  0.6000000000000001 0.3999999999999999 0  0.7999999999999998 0.3999999999999999 0  1 0.3999999999999999 0  1.2 0.3999999999999999 0  1.4 0.3999999999999999 0  1.6 0.3999999999999999 0  1.8 0.3999999999999999 0  2 0.3999999999999999 0  -2 0.6000000000000001 0  -1.8 0.6000000000000001 0  -1.6 0.6000000000000001 0  -1.4 0.6000000000000001 0  -1.2 0.6000000000000001 0  -1 0.6000000000000001 0  -0.8 0.6000000000000001 0  -0.6000000000000001 0.6000000000000001 0  -0.3999999999999999 0.6000000000000001 0  -0.2 0.6000000000000001 0  0 0.6000000000000001 0  0.2000000000000002 0.6000000000000001 0  0.3999999999999999 0.6000000000000001 0  0.6000000000000001 0.6000000000000001 0  0.7999999999999998 0.6000000000000001 0  1 0.6000000000000001 0  1.2 0.6000000000000001 0  1.4 0.6000000000000001 0  1.6 0.6000000000000001 0  1.8 0.6000000000000001 0  2 0.6000000000000001 0  -2 0.7999999999999998 0  -1.8 0.7999999999999998 0  -1.6 0.7999999999999998 0  -1.4 0.7999999999999998 0  -1.2 0.7999999999999998 0  -1 0.7999999999999998 0  -0.8 0.7999999999999998 0  -0.6000000000000001 0.7999999999999998 0  -0.3999999999999999 0.7999999999999998 0  -0.2 0.7999999999999998 0  0 0.7999999999999998 0  0.2000000000000002 0.7999999999999998 0  0.3999999999999999 0.7999999999999998 0  0.6000000000000001 0.7999999999999998 0  0.7999999999999998 0.7999999999999998 0  1 0.7999999999999998 0  1.2 0.7999999999999998 0  1.4 0.7999999999999998 0  1.6 0.7999999999999998 0  1.8 0.7999999999999998 0  2 0.7999999999999998 0  -2 1 0  -1.8 1 0  -1.6 1 0  -1.4 1 0  -1.2 1 0  -1 1 0  -0.8 1 0  -0.6000000000000001 1 0  -0.3999999999999999 1 0  -0.2 1 0  0 1 0  0.2000000000000002 1 0  0.3999999999999999 1 0  0.6000000000000001 1 0  0.7999999999999998 1 0  1 1 0  1.2 1 0  1.4 1 0  1.6 1 0  1.8 1 0  2 1 0  -2 1.2 0  -1.8 1.2 0  -1.6 1.2 0  -1.4 1.2 0  -1.2 1.2 0  -1 1.2 0  -0.8 1.2 0  -0.6000000000000001 1.2 0  -0.3999999999999999 1.2 0  -0.2 1.2 0  0 1.2 0  0.2000000000000002 1.2 0  0.3999999999999999 1.2 0  0.6000000000000001 1.2 0  0.7999999999999998 1.2 0  1 1.2 0  1.2 1.2 0  1.4 1.2 0  1.6 1.2 0  1.8 1.2 0  2 1.2 0  -2 1.4 0  -1.8 1.4 0  -1.6 1.4 0  -1.4 1.4 0  -1.2 1.4 0  -1 1.4 0  -0.8 1.4 0  -0.6000000000000001 1.4 0  -0.3999999999999999 1.4 0  -0.2 1.4 0  0 1.4 0  0.2000000000000002 1.4 0  0.3999999999999999 1.4 0  0.6000000000000001 1.4 0  0.7999999999999998 1.4 0  1 1.4 0  1.2 1.4 0  1.4 1.4 0  1.6 1.4 0  1.8 1.4 0  2 1.4 0  -2 1.6 0  -1.8 1.6 0  -1.6 1.6 0  -1.4 1.6 0  -1.2 1.6 0  -1 1.6 0  -0.8 1.6 0  -0.6000000000000001 1.6 0  -0.3999999999999999 1.6 0  -0.2 1.6 0  0 1.6 0  0.2000000000000002 1.6 0  0.3999999999999999 1.6 0  0.6000000000000001 1.6 0  0.7999999999999998 1.6 0  1 1.6 0  1.2 1.6 0  1.4 1.6 0  1.6 1.6 0  1.8 1.6 0  2 1.6 0  -2 1.8 0  -1.8 1.8 0  -1.6 1.8 0  -1.4 1.8 0  -1.2 1.8 0  -1 1.8 0  -0.8 1.8 0  -0.6000000000000001 1.8 0  -0.3999999999999999 1.8 0  -0.2 1.8 0  0 1.8 0  0.2000000000000002 1.8 0  0.3999999999999999 1.8 0  0.6000000000000001 1.8 0  0.7999999999999998 1.8 0  1 1.8 0  1.2 1.8 0  1.4 1.8 0  1.6 1.8 0  1.8 1.8 0  2 1.8 0  -2 2 0  -1.8 2 0  -1.6 2 0  -1.4 2 0  -1.2 2 0  -1 2 0  -0.8 2 0  -0.6000000000000001 2 0  -0.3999999999999999 2 0  -0.2 2 0  0 2 0  0.2000000000000002 2 0  0.3999999999999999 2 0  0.6000000000000001 2 0  0.7999999999999998 2 0  1 2 0  1.2 2 0  1.4 2 0  1.6 2 0  1.8 2 0  2 2 0  </DataArray>
</Points>
<Cells>
[...]
<PointData  Scalars="f_8"> 
<DataArray  type="Float64"  Name="f_8"  format="ascii">4.6476441173842625e-01  4.6226711343111887e-01  4.5606159628500070e-01  4.4628081711264561e-01  4.3318163203562660e-01  4.1712536930718425e-01  3.9855834397084983e-01  3.7799186833659804e-01  3.5598200881510039e-01  3.3310968926062190e-01  3.0996186049786373e-01  2.8711442106306673e-01  2.6511744058519454e-01  2.4448304937446225e-01  2.2567615471732105e-01  2.0910796186025690e-01  1.9513215004897502e-01  1.8404351717518261e-01  1.7607900378560690e-01  1.7142129992251409e-01  1.7020582638739487e-01  4.6364167719428540e-01  4.6164847740594550e-01  4.5577227417999538e-01  4.4621410339363382e-01  4.3326930246492384e-01  4.1732102762720763e-01  3.9882814173657072e-01  3.7830941610654556e-01  3.5632564330976496e-01  3.3346102325239690e-01  3.1030497522300143e-01  2.8743530543733764e-01  2.6540341278617002e-01  2.4472195110238867e-01  2.2585509797248460e-01  2.0921132282568999e-01  1.9513831146896671e-01  1.8391949161529655e-01  1.7577139951849285e-01  1.7084089132659888e-01  1.6920085252285180e-01  4.6338374129300414e-01  4.6142820724625211e-01  4.5562201950694226e-01  4.4614183740003560e-01  4.3327068907058675e-01  4.1738570300249389e-01  3.9894300774439362e-01  3.7846040348509224e-01  3.5649868750997299e-01  3.3364261934574047e-01  3.1048248513154875e-01  2.8759709726832383e-01  2.6553887379922569e-01  2.4482141053845111e-01  2.2590971538598983e-01  2.0921304477961752e-01  1.9508009066150198e-01  1.8379613382637675e-01  1.7558172581388851e-01  1.7059250878964244e-01  1.6891996397906556e-01  4.6330782880173360e-01  4.6135924103585396e-01  4.5557158929044050e-01  4.4611699399636490e-01  4.3327404399920239e-01  4.1741621227907305e-01  3.9899690712075103e-01  3.7853208592666193e-01  3.5658145426160981e-01  3.3372929291098835e-01  3.1056589407689611e-01  2.8767045146626569e-01  2.6559605437500167e-01  2.4485720506676073e-01  2.2592003640082187e-01  2.0919517701546397e-01  1.9503301579312141e-01  1.8372097229175252e-01  1.7548229522750147e-01  1.7047588868159133e-01  1.6879669685426027e-01  4.6328944624154439e-01  4.6134293394175052e-01  4.5556122283377132e-01  4.4611540283662687e-01  4.3328270943652208e-01  4.1743521158416785e-01  3.9902505045131115e-01  3.7856716338535701e-01  3.5662053404985078e-01  3.3376902975702089e-01  3.1060282213479068e-01  2.8770124756585530e-01  2.6561776635664913e-01  2.4486744625767171e-01  2.2591715092794029e-01  2.0917838097451613e-01  1.9500251527406279e-01  1.8367804968970391e-01  1.7542933938767294e-01  1.7041632359356065e-01  1.6873474537580904e-01  4.6328899111595673e-01  4.6134317151576698e-01  4.5556344425566542e-01  4.4612059428122991e-01  4.3329141072182831e-01  4.1744745059720029e-01  3.9904034956840961e-01  3.7858460415054140e-01  3.5663886259145589e-01  3.3378678556244651e-01  3.1061847511765667e-01  2.8771333163090224e-01  2.6562500106496068e-01  2.4486884113492854e-01  2.2591208902398699e-01  2.0916667920662979e-01  1.9498445879969353e-01  1.8365439629375571e-01  1.7540128834313029e-01  1.7038544303495379e-01  1.6870285503834498e-01  4.6329243752683280e-01  4.6134684038688950e-01  4.5556773820218066e-01  4.4612581418146335e-01  4.3329770344615209e-01  4.1745477946465087e-01  3.9904848973663642e-01  3.7859316122510683e-01  3.5664731003610545e-01  3.3379451506088703e-01  3.1062485368499282e-01  2.8771775969952901e-01  2.6562696665721125e-01  2.4486796629602706e-01  2.2590816569926961e-01  2.0915969256799477e-01  1.9497459662412761e-01  1.8364204345404608e-01  1.7538700598073234e-01  1.7036993281193485e-01  1.6868691024638577e-01  4.6329545713498499e-01  4.6134992196576535e-01  4.5557098957991154e-01  4.4612930864788242e-01  4.3330146161973049e-01  4.1745875847093011e-01  3.9905258090881573e-01  3.7859719626722405e-01  3.5665107451369532e-01  3.3379776733184985e-01  3.1062734699068922e-01  2.8771926506998247e-01  2.6562729447042899e-01  2.4486698467948784e-01  2.2590581438623816e-01  2.0915599125777490e-01  1.9496964730865887e-01  1.8363602655971539e-01  1.7538017055437854e-01  1.7036258138173260e-01  1.6867937942233655e-01  4.6329729021737731e-01  4.6135176702699243e-01  4.5557286714951889e-01  4.4613122792595589e-01  4.3330341457063920e-01  4.1746071631084786e-01  3.9905449344666982e-01  3.7859899415698695e-01  3.5665267410229118e-01  3.3379907749397059e-01  3.1062827715823510e-01  2.8771973359510050e-01  2.6562723649428088e-01  2.4486635878970017e-01  2.2590460750625840e-01  2.0915422139510711e-01  1.9496736397654646e-01  1.8363330886645110e-01  1.7537712312081014e-01  1.7035932839860746e-01  1.6867605729153989e-01  4.6329822540540122e-01  4.6135270175137894e-01  4.5557380129159358e-01  4.4613215781753335e-01  4.3330433117562123e-01  4.1746160418678746e-01  3.9905533064094634e-01  3.7859975306516447e-01  3.5665332319287235e-01  3.3379958370170038e-01  3.1062860867907660e-01  2.8771986278483208e-01  2.6562714257784520e-01  2.4486603012374625e-01  2.2590404319392665e-01  2.0915343212064921e-01  1.9496637199953826e-01  1.8363214718479901e-01  1.7537583387421163e-01  1.7035796063698339e-01  1.6867466427449107e-01  4.6329868914718908e-01  4.6135316394953618e-01  4.5557425943385582e-01  4.4613260809550964e-01  4.3330476783386768e-01  4.1746201916835385e-01  3.9905571358860187e-01  3.7860009169025877e-01  3.5665360397703288e-01  3.3379979285679445e-01  3.1062873326279483e-01  2.8771989185527530e-01  2.6562706827068400e-01  2.4486584854802249e-01  2.2590375506428198e-01  2.0915304307110422e-01  1.9496589255344732e-01  1.8363159238438634e-01  1.7537522259903349e-01  1.7035731466238618e-01  1.6867400713786018e-01  4.6329903659775673e-01  4.6135351197042568e-01  4.5557460744531791e-01  4.4613295413464271e-01  4.3330510786556364e-01  4.1746234668874804e-01  3.9905601958025722e-01  3.7860036494240618e-01  3.5665383173919252e-01  3.3379996175601689e-01  3.1062883038777250e-01  2.8771990589666097e-01  2.6562699060599948e-01  2.4486567416976632e-01  2.2590348326850529e-01  2.0915267784772443e-01  1.9496544264605217e-01  1.8363107101391649e-01  1.7537464687083018e-01  1.7035670469848757e-01  1.6867338499529738e-01  4.6329960507300549e-01  4.6135408576672754e-01  4.5557519229920945e-01  4.4613355197888566e-01  4.3330571493067827e-01  4.1746295237605441e-01  3.9905660625039646e-01  3.7860090864175472e-01  3.5665430377224061e-01  3.3380033091962286e-01  3.1062906562210590e-01  2.8771997908018626e-01  2.6562687922533040e-01  2.4486536362352038e-01  2.2590296860981662e-01  2.0915196482557280e-01  1.9496454796521590e-01  1.8363002179323104e-01  1.7537347933716924e-01  1.7035546220788933e-01  1.6867211552116951e-01  4.6330080655201328e-01  4.6135530629593707e-01  4.5557646155360593e-01  4.4613488783205296e-01  4.3330711760714852e-01  4.1746440100850107e-01  3.9905805822819634e-01  3.7860230175356158e-01  3.5665556080556765e-01  3.3380136612704653e-01  3.1062979231481919e-01  2.8772031756268845e-01  2.6562676432294147e-01  2.4486475115279288e-01  2.2590184027598742e-01  2.0915033118086265e-01  1.9496244921453157e-01  1.8362752638483615e-01  1.7537068042559717e-01  1.7035247222595606e-01  1.6866905924420333e-01  4.6330303367665787e-01  4.6135759872078080e-01  4.5557893591259918e-01  4.4613762501984283e-01  4.3331014547125063e-01  4.1746768446867560e-01  3.9906149772610372e-01  3.7860573973690442e-01  3.5665879499709441e-01  3.3380416771007304e-01  3.1063192688776237e-01  2.8772156672222493e-01  2.6562694594579700e-01  2.4486373677118919e-01  2.2589956830588953e-01  2.0914681511585967e-01  1.9495778022433333e-01  1.8362187007011185e-01  1.7536426781560974e-01  1.7034558549921500e-01  1.6866201311634552e-01  4.6330590706838765e-01  4.6136069013769981e-01  4.5558264656729641e-01  4.4614225014328368e-01  4.3331582557646514e-01  4.1747437967991030e-01  3.9906898633777493e-01  3.7861363859101921e-01  3.5666659697949199e-01  3.3381129061325010e-01  3.1063776781725899e-01  2.8772555681111067e-01  2.6562860106934649e-01  2.4486270094975507e-01  2.2589564734963954e-01  2.0913999869484601e-01  1.9494825094503820e-01  1.8360999842712797e-01  1.7535059229555253e-01  1.7033077793706988e-01  1.6864683088702245e-01  4.6330583900045025e-01  4.6136131618592097e-01  4.5558522617785374e-01  4.4614772331029318e-01  4.3332468389177742e-01  4.1748661278081201e-01  3.9908409716101645e-01  3.7863071251093494e-01  3.5668440729284806e-01  3.3382842371719401e-01  3.1065275414434645e-01  2.8773699699962779e-01  2.6563528018895533e-01  2.4486368633461178e-01  2.2589036733500009e-01  2.0912830008120689e-01  1.9493043230419377e-01  1.8358681471888227e-01  1.7532322448508422e-01  1.7030076089436841e-01  1.6861593608386230e-01  4.6328972301354837e-01  4.6134735600585380e-01  4.5557717931285652e-01  4.4614827875942342e-01  4.3333518153353290e-01  4.1750702208661550e-01  3.9911316936939606e-01  3.7866623131172555e-01  3.5672348221540945e-01  3.3386778841233816e-01  3.1068904632956862e-01  2.8776700809864147e-01  2.6565617116504353e-01  2.4487317214869808e-01  2.2588687564426074e-01  2.0911110954684456e-01  1.9489979111399194e-01  1.8354402941085729e-01  1.7527069218252650e-01  1.7024189631958175e-01  1.6855492681117604e-01  4.6321851785211393e-01  4.6128347474489573e-01  4.5553183861984414e-01  4.4612814837501269e-01  4.3334259092366972e-01  4.1754076560542358e-01  3.9916942928908750e-01  3.7873943222733264e-01  3.5680701734663500e-01  3.3395460944473698e-01  3.1077212777623830e-01  2.8783970522895003e-01  2.6571249622587456e-01  2.4490802014782087e-01  2.2589623877815826e-01  2.0909232688913559e-01  1.9485188333526718e-01  1.8346815797436875e-01  1.7517073900642099e-01  1.7012504178452359e-01  1.6843182531012155e-01  4.6296757128665139e-01  4.6107120107433303e-01  4.5538891928608949e-01  4.4606196138654136e-01  4.3334871442572059e-01  4.1760897126225244e-01  3.9928683163027445e-01  3.7889218230384253e-01  3.5698124705658896e-01  3.3413697371810180e-01  3.1095010769950926e-01  2.8800174647198357e-01  2.6584802149499731e-01  2.4500735080916347e-01  2.2595048184320296e-01  2.0909333306308234e-01  1.9479247697308916e-01  1.8334301835920125e-01  1.7497864803950511e-01  1.6987384472206918e-01  1.6814863687006032e-01  4.6185800582712655e-01  4.6045765579694209e-01  4.5510032625806918e-01  4.4599389417842711e-01  4.3343436388821349e-01  4.1780280919997054e-01  3.9955550982844451e-01  3.7920955123476008e-01  3.5732569481313742e-01  3.3449003038311831e-01  3.1129568317114970e-01  2.8832560829038656e-01  2.6613724700951097e-01  2.4524954062310197e-01  2.2613250929021675e-01  2.0919931704458938e-01  1.9480046846174756e-01  1.8321951457897223e-01  1.7466936390759341e-01  1.6928794571582045e-01  1.6713145250151001e-01  </DataArray> 
</PointData> 
</Piece>
</UnstructuredGrid>
</VTKFile>