<?xml version="1.0"?>
<VTKFile type="UnstructuredGrid"  version="0.1"  >
<UnstructuredGrid>
<Piece  NumberOfPoints="441" NumberOfCells="800">
<Points>
<DataArray  type="Float64"  NumberOfComponents="3"  format="ascii">-2 -2 0  -1.8 -2 0  -1.6 -2 0  -1.4 -2 0  -1.2 -2 0  -1 -2 0  -0.8 -2 0  -0.6000000000000001 -2 0  -0.3999999999999999 -2 0  -0.2 -2 0  0 -2 0  0.2000000000000002 -2 0  0.3999999999999999 -2 0  0.6000000000000001 -2 0  0.7999999999999998 -2 0  1 -2 0  1.2 -2 0  1.4 -2 0  1.6 -2 0  1.8 -2 0  2 -2 0  -2 -1.8 0  -1.8 -1.8 0  -1.6 -1.8 0  -1.4 -1.8 0  -1.2 -1.8 0  -1 -1.8 0  -0.8 -1.8 0  -0.6000000000000001 -1.8 0  -0.3999999999999999 -1.8 0  -0.2 -1.8 0  0 -1.8 0  0.2000000000000002 -1.8 0  0.3999999999999999 -1.8 0  0.6000000000000001 -1.8 0  0.7999999999999998 -1.8 0  1 -1.8 0  1.2 -1.8 0  1.4 -1.8 0  1.6 -1.8 0  1.8 -1.8 0  2 -1.8 0  -2 -1.6 0  -1.8 -1.6 0  -1.6 -1.6 0  -1.4 -1.6 0  -1.2 -1.6 0  -1 -1.6 0  -0.8 -1.6 0  -0.6000000000000001 -1.6 0  -0.3999999999999999 -1.6 0  -0.2 -1.6 0  0 -1.6 0  0.2000000000000002 -1.6 0  0.3999999999999999 -1.6 0  0.6000000000000001 -1.6 0  0.7999999999999998 -1.6 0  1 -1.6 0  1.2 -1.6 0  1.4 -1.6 0  1.6 -1.6 0  1.8 -1.6 0  2 -1.6 0  -2 -1.4 0  -1.8 -1.4 0  -1.6 -1.4 0  -1.4 -1.4 0  -1.2 -1.4 0  -1 -1.4 0  -0.8 -1.4 0  -0.6000000000000001 -1.4 0  -0.3999999999999999 -1.4 0  -0.2 -1.4 0  0 -1.4 0  0.2000000000000002 -1.4 0  0.3999999999999999 -1.4 0  0.6000000000000001 -1.4 0  0.7999999999999998 -1.4 0  1 -1.4 0  1.2 -1.4 0  1.4 -1.4 0  1.6 -1.4 0  1.8 -1.4 0  2 -1.4 0  -2 -1.2 0  -1.8 -1.2 0  -1.6 -1.2 0  -1.4 -1.2 0  -1.2 -1.2 0  -1 -1.2 0  -0.8 -1.2 0  -0.6000000000000001 -1.2 0  -0.3999999999999999 -1.2 0  -0.2 -1.2 0  0 -1.2 0  0.2000000000000002 -1.2 0  0.3999999999999999 -1.2 0  0.6000000000000001 -1.2 0  0.7999999999999998 -1.2 0  1 -1.2 0  1.2 -1.2 0  1.4 -1.2 0  1.6 -1.2 0  1.8 -1.2 0  2 -1.2 0  -2 -1 0  -1.8 -1 0  -1.6 -1 0  -1.4 -1 0  -1.2 -1 0  -1 -1 0  -0.8 -1 0  -0.6000000000000001 -1 0  -0.3999999999999999 -1 0  -0.2 -1 0  0 -1 0  0.2000000000000002 -1 0  0.3999999999999999 -1 0  0.6000000000000001 -1 0  0.7999999999999998 -1 0  1 -1 0  1.2 -1 0  1.4 -1 0  1.6 -1 0  1.8 -1 0  2 -1 0  -2 -0.8 0  -1.8 -0.8 0  -1.6 -0.8 0  -1.4 -0.8 0  -1.2 -0.8 0  -1 -0.8 0  -0.8 -0.8 0  -0.6000000000000001 -0.8 0  -0.3999999999999999 -0.8 0  -0.2 -0.8 0  0 -0.8 0  0.2000000000000002 -0.8 0  0.3999999999999999 -0.8 0  0.6000000000000001 -0.8 0  0.7999999999999998 -0.8 0  1 -0.8 0  1.2 -0.8 0  1.4 -0.8 0  1.6 -0.8 0  1.8 -0.8 0  2 -0.8 0  -2 -0.6000000000000001 0  -1.8 -0.6000000000000001 0  -1.6 -0.6000000000000001 0  -1.4 -0.6000000000000001 0  -1.2 -0.6000000000000001 0  -1 -0.6000000000000001 0  -0.8 -0.6000000000000001 0  -0.6000000000000001 -0.6000000000000001 0  -0.3999999999999999 -0.6000000000000001 0  -0.2 -0.6000000000000001 0  0 -0.6000000000000001 0  0.2000000000000002 -0.6000000000000001 0  0.3999999999999999 -0.6000000000000001 0  0.6000000000000001 -0.6000000000000001 0  0.7999999999999998 -0.6000000000000001 0  1 -0.6000000000000001 0  1.2 -0.6000000000000001 0  1.4 -0.6000000000000001 0  1.6 -0.6000000000000001 0  1.8 -0.6000000000000001 0  2 -0.6000000000000001 0  -2 -0.3999999999999999 0  -1.8 -0.3999999999999999 0  -1.6 -0.3999999999999999 0  -1.4 -0.3999999999999999 0  -1.2 -0.3999999999999999 0  -1 -0.3999999999999999 0  -0.8 -0.3999999999999999 0  -0.6000000000000001 -0.3999999999999999 0  -0.3999999999999999 -0.3999999999999999 0  -0.2 -0.3999999999999999 0  0 -0.3999999999999999 0  0.2000000000000002 -0.3999999999999999 0  0.3999999999999999 -0.3999999999999999 0  0.6000000000000001 -0.3999999999999999 0  0.7999999999999998 -0.3999999999999999 0  1 -0.3999999999999999 0  1.2 -0.3999999999999999 0  1.4 -0.3999999999999999 0  1.6 -0.3999999999999999 0  1.8 -0.3999999999999999 0  2 -0.3999999999999999 0  -2 -0.2 0  -1.8 -0.2 0  -1.6 -0.2 0  -1.4 -0.2 0  -1.2 -0.2 0  -1 -0.2 0  -0.8 -0.2 0  -0.6000000000000001 -0.2 0  -0.3999999999999999 -0.2 0  -0.2 -0.2 0  0 -0.2 0  0.2000000000000002 -0.2 0  0.3999999999999999 -0.2 0  0.6000000000000001 -0.2 0  0.7999999999999998 -0.2 0  1 -0.2 0  1.2 -0.2 0  1.4 -0.2 0  1.6 -0.2 0  1.8 -0.2 0  2 -0.2 0  -2 0 0  -1.8 0 0  -1.6 0 0  -1.4 0 0  -1.2 0 0  -1 0 0  -0.8 0 0  -0.6000000000000001 0 0  -0.3999999999999999 0 0  -0.2 0 0  0 0 0  0.2000000000000002 0 0  0.3999999999999999 0 0  0.6000000000000001 0 0  0.7999999999999998 0 0  1 0 0  1.2 0 0  1.4 0 0  1.6 0 0  1.8 0 0  2 0 0  -2 0.2000000000000002 0  -1.8 0.2000000000000002 0  -1.6 0.2000000000000002 0  -1.4 0.2000000000000002 0  -1.2 0.2000000000000002 0  -1 0.2000000000000002 0  -0.8 0.2000000000000002 0  -0.6000000000000001 0.2000000000000002 0  -0.3999999999999999 0.2000000000000002 0  -0.2 0.2000000000000002 0  0 0.2000000000000002 0  0.2000000000000002 0.2000000000000002 0  0.3999999999999999 0.2000000000000002 0  0.6000000000000001 0.2000000000000002 0  0.7999999999999998 0.2000000000000002 0  1 0.2000000000000002 0  1.2 0.2000000000000002 0  1.4 0.2000000000000002 0  1.6 0.2000000000000002 0  1.8 0.2000000000000002 0  2 0.2000000000000002 0  -2 0.3999999999999999 0  -1.8 0.3999999999999999 0  -1.6 0.3999999999999999 0  -1.4 0.3999999999999999 0  -1.2 0.3999999999999999 0  -1 0.3999999999999999 0  -0.8 0.3999999999999999 0  -0.6000000000000001 0.3999999999999999 0  -0.3999999999999999 0.3999999999999999 0  -0.2 0.3999999999999999 0  0 0.3999999999999999 0  0.2000000000000002 0.3999999999999999 0  0.3999999999999999 0.3999999999999999 0  0.6000000000000001 0.3999999999999999 0  0.7999999999999998 0.3999999999999999 0  1 0.3999999999999999 0  1.2 0.3999999999999999 0  1.4 0.3999999999999999 0  1.6 0.3999999999999999 0  1.8 0.3999999999999999 0  2 0.3999999999999999 0  -2 0.6000000000000001 0  -1.8 0.6000000000000001 0  -1.6 0.6000000000000001 0  -1.4 0.6000000000000001 0  -1.2 0.6000000000000001 0  -1 0.6000000000000001 0  -0.8 0.6000000000000001 0  -0.6000000000000001 0.6000000000000001 0  -0.3999999999999999 0.6000000000000001 0  -0.2 0.6000000000000001 0  0 0.6000000000000001 0  0.2000000000000002 0.6000000000000001 0  0.3999999999999999 0.6000000000000001 0  0.6000000000000001 0.6000000000000001 0  0.7999999999999998 0.6000000000000001 0  1 0.6000000000000001 0  1.2 0.6000000000000001 0  1.4 0.6000000000000001 0  1.6 0.6000000000000001 0  1.8 0.6000000000000001 0  2 0.6000000000000001 0  -2 0.7999999999999998 0  -1.8 0.7999999999999998 0  -1.6 0.7999999999999998 0  -1.4 0.7999999999999998 0  -1.2 0.7999999999999998 0  -1 0.7999999999999998 0  -0.8 0.7999999999999998 0  -0.6000000000000001 0.7999999999999998 0  -0.3999999999999999 0.7999999999999998 0  -0.2 0.7999999999999998 0  0 0.7999999999999998 0  0.2000000000000002 0.7999999999999998 0  0.3999999999999999 0.7999999999999998 0  0.6000000000000001 0.7999999999999998 0  0.7999999999999998 0.7999999999999998 0  1 0.7999999999999998 0  1.2 0.7999999999999998 0  1.4 0.7999999999999998 0  1.6 0.7999999999999998 0  1.8 0.7999999999999998 0  2 0.7999999999999998 0  -2 1 0  -1.8 1 0  -1.6 1 0  -1.4 1 0  -1.2 1 0  -1 1 0  -0.8 1 0  -0.6000000000000001 1 0  -0.3999999999999999 1 0  -0.2 1 0  0 1 0  0.2000000000000002 1 0  0.3999999999999999 1 0  0.6000000000000001 1 0  0.7999999999999998 1 0  1 1 0  1.2 1 0  1.4 1 0  1.6 1 0  1.8 1 0  2 1 0  -2 1.2 0  -1.8 1.2 0  -1.6 1.2 0  -1.4 1.2 0  -1.2 1.2 0  -1 1.2 0  -0.8 1.2 0  -0.6000000000000001 1.2 0  -0.3999999999999999 1.2 0  -0.2 1.2 0  0 1.2 0  0.2000000000000002 1.2 0  0.3999999999999999 1.2 0  0.6000000000000001 1.2 0  0.7999999999999998 1.2 0  1 1.2 0  1.2 1.2 0  1.4 1.2 0  1.6 1.2 0  1.8 1.2 0  2 1.2 0  -2 1.4 0  -1.8 1.4 0  -1.6 1.4 0  -1.4 1.4 0  -1.2 1.4 0  -1 1.4 0  -0.8 1.4 0  -0.6000000000000001 1.4 0  -0.3999999999999999 1.4 0  -0.2 1.4 0  0 1.4 0  0.2000000000000002 1.4 0  0.3999999999999999 1.4 0  0.6000000000000001 1.4 0  0.7999999999999998 1.4 0  1 1.4 0  1.2 1.4 0  1.4 1.4 0  1.6 1.4 0  1.8 1.4 0  2 1.4 0  -2 1.6 0  -1.8 1.6 0  -1.6 1.6 0  -1.4 1.6 0  -1.2 1.6 0  -1 1.6 0  -0.8 1.6 0  -0.6000000000000001 1.6 0  -0.3999999999999999 1.6 0  -0.2 1.6 0  0 1.6 0  0.2000000000000002 1.6 0  0.3999999999999999 1.6 0  0.6000000000000001 1.6 0  0.7999999999999998 1.6 0  1 1.6 0  1.2 1.6 0  1.4 1.6 0  1.6 1.6 0  1.8 1.6 0  2 1.6 0  -2 1.8 0  -1.8 1.8 0  -1.6 1.8 0  -1.4 1.8 0  -1.2 1.8 0  -1 1.8 0  -0.8 1.8 0  -0.6000000000000001 1.8 0  -0.3999999999999999 1.8 0  -0.2 1.8 0  0 1.8 0  0.2000000000000002 1.8 0  0.3999999999999999 1.8 0  0.6000000000000001 1.8 0  0.7999999999999998 1.8 0  1 1.8 0  1.2 1.8 0  1.4 1.8 0  1.6 1.8 0  1.8 1.8 0  2 1.8 0  -2 2 0  -1.8 2 0  -1.6 2 0  -1.4 2 0  -1.2 2 0  -1 2 0  -0.8 2 0  -0.6000000000000001 2 0  -0.3999999999999999 2 0  -0.2 2 0  0 2 0  0.2000000000000002 2 0  0.3999999999999999 2 0  0.6000000000000001 2 0  0.7999999999999998 2 0  1 2 0  1.2 2 0  1.4 2 0  1.6 2 0  1.8 2 0  2 2 0  </DataArray>
</Points>
<Cells>
[...]
<PointData  Scalars="f_8"> 
<DataArray  type="Float64"  Name="f_8"  format="ascii">2.1514319244814223e-01  0.0000000000000000e+00  0.0000000000000000e+00  0.0000000000000000e+00  0.0000000000000000e+00  0.0000000000000000e+00  0.0000000000000000e+00  0.0000000000000000e+00  0.0000000000000000e+00  0.0000000000000000e+00  0.0000000000000000e+00  0.0000000000000000e+00  0.0000000000000000e+00  0.0000000000000000e+00  0.0000000000000000e+00  0.0000000000000000e+00  0.0000000000000000e+00  0.0000000000000000e+00  0.0000000000000000e+00  0.0000000000000000e+00  0.0000000000000000e+00  8.4348289016946643e-01  8.3363183983897104e-01  7.9806330705380668e-01  7.3601499823436312e-01  6.5499617242391928e-01  5.6298455589238716e-01  4.6766382350454549e-01  3.7564724226039653e-01  2.9191883983017081e-01  2.1959608812352624e-01  1.6000899718398212e-01  1.1301555376883672e-01  7.7440126811074553e-02  5.1525700292388177e-02  3.3319836810768756e-02  2.0952547566019303e-02  1.2798715640118122e-02  7.5408234180818082e-03  4.1574865195535011e-03  1.8614382940914556e-03  0.0000000000000000e+00  9.1405092443562008e-01  8.9953077272665993e-01  8.5508768330147933e-01  7.8524410338471795e-01  6.9682569696018049e-01  5.9770808791126218e-01  4.9571589726453541e-01  3.9766021344036073e-01  3.0868412447647842e-01  2.3198636180999996e-01  1.6889641218507453e-01  1.1920554098086970e-01  8.1628838278722304e-02  5.4281160996642652e-02  3.5082199008594175e-02  2.2046996036302172e-02  1.3454795979624812e-02  7.9134314626825974e-03  4.3468298685075228e-03  1.9317410710176881e-03  0.0000000000000000e+00  9.1983549154933975e-01  9.0427485772312821e-01  8.5895657223839572e-01  7.8843466879805069e-01  6.9944106911028969e-01  5.9981689012181494e-01  4.9737848627873016e-01  3.9893776463250830e-01  3.0963935670222653e-01  2.3268087025398673e-01  1.6938734983842094e-01  1.1954300851004214e-01  8.1854472017846167e-02  5.4427892229899945e-02  3.5174900841210700e-02  2.2103660848837157e-02  1.3487927648229016e-02  7.9314330012522395e-03  4.3552718957960476e-03  1.9344674462140317e-03  0.0000000000000000e+00  9.2025728525315709e-01  9.0459873449677353e-01  8.5921026301765380e-01  7.8863672839042587e-01  6.9960188411187907e-01  5.9994333033196445e-01  4.9747602080555448e-01  3.9901128884355302e-01  3.0969340384796490e-01  2.3271957185214753e-01  1.6941433428807590e-01  1.1956132590573808e-01  8.1866574513431281e-02  5.4435667837876775e-02  3.5179744783969916e-02  2.2106565805338499e-02  1.3489577336854292e-02  7.9322886297645539e-03  4.3556453063902994e-03  1.9345764551495848e-03  0.0000000000000000e+00  9.2028621634994945e-01  9.0462008580557784e-01  8.5922649082120750e-01  7.8864929538294892e-01  6.9961163698023598e-01  5.9995082911435316e-01  4.9748169183456792e-01  3.9901548900270606e-01  3.0969644284546738e-01  2.3272171708030456e-01  1.6941581060544500e-01  1.1956231584987013e-01  8.1867220728550891e-02  5.4436077641574911e-02  3.5179996056411887e-02  2.2106713273401728e-02  1.3489658507488381e-02  7.9323288800825370e-03  4.3556618400411836e-03  1.9345809616607569e-03  0.0000000000000000e+00  9.2028812641732982e-01  9.0462145804759331e-01  8.5922750902484191e-01  7.8865006545770111e-01  6.9961222155896430e-01  5.9995126963336842e-01  4.9748201898306210e-01  3.9901572735893376e-01  3.0969661276314447e-01  2.3272183540789568e-01  1.6941589101518170e-01  1.1956236911630243e-01  8.1867255067819181e-02  5.4436099114050271e-02  3.5180008994751814e-02  2.2106720692880655e-02  1.3489662465342099e-02  7.9323307639400618e-03  4.3556625775251229e-03  1.9345811544866885e-03  0.0000000000000000e+00  9.2028824919393115e-01  9.0462154451373256e-01  8.5922757191224175e-01  7.8865011205539248e-01  6.9961225624222723e-01  5.9995129529489488e-01  4.9748203772290250e-01  3.9901574080470392e-01  3.0969662221454608e-01  2.3272184190455830e-01  1.6941589537576043e-01  1.1956237196967574e-01  8.1867256883480274e-02  5.4436100232483395e-02  3.5180009656307361e-02  2.2106721063377417e-02  1.3489662657153260e-02  7.9323308520566002e-03  4.3556626108102884e-03  1.9345811630173738e-03  0.0000000000000000e+00  9.2028825692720650e-01  9.0462154987476628e-01  8.5922757574496189e-01  7.8865011484438341e-01  6.9961225828149509e-01  5.9995129677851700e-01  4.9748203878953112e-01  3.9901574155903041e-01  3.0969662273772730e-01  2.3272184225967130e-01  1.6941589561121018e-01  1.1956237212182973e-01  8.1867256978991679e-02  5.4436100290397325e-02  3.5180009689914964e-02  2.2106721081763599e-02  1.3489662666411687e-02  7.9323308561840868e-03  4.3556626123292634e-03  1.9345811634031743e-03  0.0000000000000000e+00  9.2028825740641296e-01  9.0462155020265023e-01  8.5922757597586019e-01  7.8865011500969007e-01  6.9961225840040520e-01  5.9995129686367110e-01  4.9748203884983699e-01  3.9901574160106995e-01  3.0969662276647725e-01  2.3272184227890719e-01  1.6941589562376611e-01  1.1956237212979531e-01  8.1867256983874800e-02  5.4436100293262520e-02  3.5180009691497816e-02  2.2106721082562598e-02  1.3489662666757727e-02  7.9323308562911036e-03  4.3556626123305740e-03  1.9345811633788013e-03  0.0000000000000000e+00  9.2028825743563569e-01  9.0462155022234803e-01  8.5922757598942812e-01  7.8865011501908355e-01  6.9961225840681085e-01  5.9995129686786008e-01  4.9748203885234787e-01  3.9901574160230480e-01  3.0969662276675053e-01  2.3272184227847298e-01  1.6941589562283266e-01  1.1956237212853346e-01  8.1867256982423628e-02  5.4436100291733666e-02  3.5180009689979509e-02  2.2106721081123895e-02  1.3489662665454526e-02  7.9323308551748854e-03  4.3556626114627855e-03  1.9345811628560369e-03  0.0000000000000000e+00  9.2028825743604115e-01  9.0462155022116630e-01  8.5922757598631694e-01  7.8865011501353954e-01  6.9961225839833385e-01  5.9995129685610027e-01  4.9748203883720898e-01  3.9901574158398412e-01  3.0969662274571991e-01  2.3272184225541537e-01  1.6941589559855552e-01  1.1956237210387881e-01  8.1867256958190637e-02  5.4436100268622500e-02  3.5180009668563363e-02  2.2106721061851447e-02  1.3489662648687570e-02  7.9323308412719649e-03  4.3556626009340991e-03  1.9345811566444644e-03  0.0000000000000000e+00  9.2028825740939713e-01  9.0462155017489154e-01  8.5922757591054488e-01  7.8865011489841730e-01  6.9961225823643347e-01  5.9995129664427860e-01  4.9748203857739354e-01  3.9901574128285860e-01  3.0969662241360019e-01  2.3272184190472031e-01  1.6941589524224626e-01  1.1956237175412938e-01  8.1867256625437285e-02  5.4436099961043531e-02  3.5180009391978011e-02  2.2106720820010556e-02  1.3489662443953597e-02  7.9323306757713933e-03  4.3556624784402897e-03  1.9345810857826823e-03  0.0000000000000000e+00  9.2028825688276250e-01  9.0462154926586991e-01  8.5922757445146036e-01  7.8865011275025843e-01  6.9961225532843374e-01  5.9995129299229399e-01  4.9748203427977189e-01  3.9901573650034339e-01  3.0969661734198062e-01  2.3272183674757047e-01  1.6941589018846134e-01  1.1956236696243049e-01  8.1867252216153708e-02  5.4436096014379161e-02  3.5180005951523631e-02  2.2106717900350216e-02  1.3489660041787371e-02  7.9323287851211354e-03  4.3556611125362098e-03  1.9345803118660200e-03  0.0000000000000000e+00  9.2028824646045537e-01  9.0462153141413493e-01  8.5922754654578903e-01  7.8865007322950409e-01  6.9961220415444625e-01  5.9995123160747510e-01  4.9748196522825650e-01  3.9901566291778023e-01  3.0969654246752398e-01  2.3272176354187007e-01  1.6941582108585429e-01  1.1956230375119706e-01  8.1867196023830149e-02  5.4436047369861067e-02  3.5179964897516770e-02  2.2106684136043529e-02  1.3489633085624730e-02  7.9323081621294599e-03  4.3556465930653194e-03  1.9345722660901886e-03  0.0000000000000000e+00  9.2028803902007172e-01  9.0462118094985811e-01  8.5922701813938063e-01  7.8864935981367656e-01  6.9961132666976666e-01  5.9995023123575064e-01  4.9748089325621681e-01  3.9901457168545773e-01  3.0969547882682313e-01  2.3272076500097927e-01  1.6941491423696473e-01  1.1956150439962551e-01  8.1866510446889834e-02  5.4435474219614755e-02  3.5179497374699539e-02  2.2106312188740224e-02  1.3489345527317530e-02  7.9320947729009088e-03  4.3555004975023492e-03  1.9344932414528176e-03  0.0000000000000000e+00  9.2028388429396935e-01  9.0461432019123533e-01  8.5921716521189728e-01  7.8863680873748176e-01  6.9959676847955710e-01  5.9993453108602424e-01  4.9746491388039477e-01  3.9899906168510013e-01  3.0968101667022541e-01  2.3270774322870252e-01  1.6940354990148790e-01  1.1955186496779784e-01  8.1858547227460707e-02  5.4429057594327736e-02  3.5174449952177923e-02  2.2102437694102993e-02  1.3486452916665300e-02  7.9300188422724623e-03  4.3541224086453643e-03  1.9337675262109002e-03  0.0000000000000000e+00  9.2020010212178227e-01  9.0448093871828839e-01  8.5903766144473215e-01  7.8842356242371969e-01  6.9936513249975041e-01  5.9969912171625939e-01  4.9723779324750461e-01  3.9878909755371661e-01  3.0949389350044426e-01  2.3254631470870693e-01  1.6926835875418481e-01  1.1944172475160864e-01  8.1771114940150297e-02  5.4361347359968393e-02  3.5123257164000422e-02  2.2064662166113067e-02  1.3459328140736060e-02  7.9112717553589344e-03  4.3421057341495040e-03  1.9276300427840348e-03  0.0000000000000000e+00  9.1849812078751780e-01  9.0192289814119664e-01  8.5588018731036009e-01  7.8496783447995067e-01  6.9586910931598411e-01  5.9635728576830194e-01  4.9418281209720805e-01  3.9609973068600024e-01  3.0720446632226228e-01  2.3065652737375297e-01  1.6775294094055970e-01  1.1825945148215204e-01  8.0872669834887959e-02  5.3695631762856522e-02  3.4641965623354636e-02  2.1725194505716253e-02  1.3226319909368255e-02  7.7571726006610414e-03  4.2473363695951323e-03  1.8809590904202836e-03  0.0000000000000000e+00  8.8365071485135516e-01  8.5407986133070157e-01  8.0326584587582794e-01  7.3245237611933067e-01  6.4645219345973903e-01  5.5185774478107785e-01  4.5557760992814311e-01  3.6372425561865818e-01  2.8090728150741068e-01  2.0994116048753023e-01  1.5191065665218931e-01  1.0648625418389586e-01  7.2362836706437408e-02  4.7707611595925729e-02  3.0537097368804871e-02  1.8983459113365672e-02  1.1445469017042017e-02  6.6421518128756876e-03  3.5965142526317891e-03  1.5750897375425722e-03  0.0000000000000000e+00  1.6421428865741311e-01  0.0000000000000000e+00  0.0000000000000000e+00  0.0000000000000000e+00  0.0000000000000000e+00  0.0000000000000000e+00  0.0000000000000000e+00  0.0000000000000000e+00  0.0000000000000000e+00  0.0000000000000000e+00  0.0000000000000000e+00  0.0000000000000000e+00  0.0000000000000000e+00  0.0000000000000000e+00  0.0000000000000000e+00  0.0000000000000000e+00  0.0000000000000000e+00  0.0000000000000000e+00  0.0000000000000000e+00  0.0000000000000000e+00  0.0000000000000000e+00  </DataArray> 
</PointData> 
</Piece>
</UnstructuredGrid>
</VTKFile>