<?xml version="1.0"?>
<VTKFile type="UnstructuredGrid"  version="0.1"  >
<UnstructuredGrid>
<Piece  NumberOfPoints="441" NumberOfCells="800">
<Points>
<DataArray  type="Float64"  NumberOfComponents="3"  format="ascii">-2 -2 0  -1.8 -2 0  -1.6 -2 0  -1.4 -2 0  -1.2 -2 0  -1 -2 0  -0.8 -2 0  -0.6000000000000001 -2 0  -0.3999999999999999 -2 0  -0.2 -2 0  0 -2 0  0.2000000000000002 -2 0  0.3999999999999999 -2 0  0.6000000000000001 -2 0  0.7999999999999998 -2 0  1 -2 0  1.2 -2 0  1.4 -2 0  1.6 -2 0  1.8 -2 0  2 -2 0  -2 -1.8 0  -1.8 -1.8 0  -1.6 -1.8 0  -1.4 -1.8 0  -1.2 -1.8 0  -1 -1.8 0  -0.8 -1.8 0  -0.6000000000000001 -1.8 0  -0.3999999999999999 -1.8 0  -0.2 -1.8 0  0 -1.8 0  0.2000000000000002 -1.8 0  0.3999999999999999 -1.8 0  0.6000000000000001 -1.8 0  0.7999999999999998 -1.8 0  1 -1.8 0  1.2 -1.8 0  1.4 -1.8 0  1.6 -1.8 0  1.8 -1.8 0  2 -1.8 0  -2 -1.6 0  -1.8 -1.6 0  -1.6 -1.6 0  -1.4 -1.6 0  -1.2 -1.6 0  -1 -1.6 0  -0.8 -1.6 0  -0.6000000000000001 -1.6 0  -0.3999999999999999 -1.6 0  -0.2 -1.6 0  0 -1.6 0  0.2000000000000002 -1.6 0  0.3999999999999999 -1.6 0  0.6000000000000001 -1.6 0  0.7999999999999998 -1.6 0  1 -1.6 0  1.2 -1.6 0  1.4 -1.6 0  1.6 -1.6 0  1.8 -1.6 0  2 -1.6 0  -2 -1.4 0  -1.8 -1.4 0  -1.6 -1.4 0  -1.4 -1.4 0  -1.2 -1.4 0  -1 -1.4 0  -0.8 -1.4 0  -0.6000000000000001 -1.4 0  -0.3999999999999999 -1.4 0  -0.2 -1.4 0  0 -1.4 0  0.2000000000000002 -1.4 0  0.3999999999999999 -1.4 0  0.6000000000000001 -1.4 0  0.7999999999999998 -1.4 0  1 -1.4 0  1.2 -1.4 0  1.4 -1.4 0  1.6 -1.4 0  1.8 -1.4 0  2 -1.4 0  -2 -1.2 0  -1.8 -1.2 0  -1.6 -1.2 0  -1.4 -1.2 0  -1.2 -1.2 0  -1 -1.2 0  -0.8 -1.2 0  -0.6000000000000001 -1.2 0  -0.3999999999999999 -1.2 0  -0.2 -1.2 0  0 -1.2 0  0.2000000000000002 -1.2 0  0.3999999999999999 -1.2 0  0.6000000000000001 -1.2 0  0.7999999999999998 -1.2 0  1 -1.2 0  1.2 -1.2 0  1.4 -1.2 0  1.6 -1.2 0  1.8 -1.2 0  2 -1.2 0  -2 -1 0  -1.8 -1 0  -1.6 -1 0  -1.4 -1 0  -1.2 -1 0  -1 -1 0  -0.8 -1 0  -0.6000000000000001 -1 0  -0.3999999999999999 -1 0  -0.2 -1 0  0 -1 0  0.2000000000000002 -1 0  0.3999999999999999 -1 0  0.6000000000000001 -1 0  0.7999999999999998 -1 0  1 -1 0  1.2 -1 0  1.4 -1 0  1.6 -1 0  1.8 -1 0  2 -1 0  -2 -0.8 0  -1.8 -0.8 0  -1.6 -0.8 0  -1.4 -0.8 0  -1.2 -0.8 0  -1 -0.8 0  -0.8 -0.8 0  -0.6000000000000001 -0.8 0  -0.3999999999999999 -0.8 0  -0.2 -0.8 0  0 -0.8 0  0.2000000000000002 -0.8 0  0.3999999999999999 -0.8 0  0.6000000000000001 -0.8 0  0.7999999999999998 -0.8 0  1 -0.8 0  1.2 -0.8 0  1.4 -0.8 0  1.6 -0.8 0  1.8 -0.8 0  2 -0.8 0  -2 -0.6000000000000001 0  -1.8 -0.6000000000000001 0  -1.6 -0.6000000000000001 0  -1.4 -0.6000000000000001 0  -1.2 -0.6000000000000001 0  -1 -0.6000000000000001 0  -0.8 -0.6000000000000001 0  -0.6000000000000001 -0.6000000000000001 0  -0.3999999999999999 -0.6000000000000001 0  -0.2 -0.6000000000000001 0  0 -0.6000000000000001 0  0.2000000000000002 -0.6000000000000001 0  0.3999999999999999 -0.6000000000000001 0  0.6000000000000001 -0.6000000000000001 0  0.7999999999999998 -0.6000000000000001 0  1 -0.6000000000000001 0  1.2 -0.6000000000000001 0  1.4 -0.6000000000000001 0  1.6 -0.6000000000000001 0  1.8 -0.6000000000000001 0  2 -0.6000000000000001 0  -2 -0.3999999999999999 0  -1.8 -0.3999999999999999 0  -1.6 -0.3999999999999999 0  -1.4 -0.3999999999999999 0  -1.2 -0.3999999999999999 0  -1 -0.3999999999999999 0  -0.8 -0.3999999999999999 0  -0.6000000000000001 -0.3999999999999999 0  -0.3999999999999999 -0.3999999999999999 0  -0.2 -0.3999999999999999 0  0 -0.3999999999999999 0  0.2000000000000002 -0.3999999999999999 0  0.3999999999999999 -0.3999999999999999 0  0.6000000000000001 -0.3999999999999999 0  0.7999999999999998 -0.3999999999999999 0  1 -0.3999999999999999 0  1.2 -0.3999999999999999 0  1.4 -0.3999999999999999 0  1.6 -0.3999999999999999 0  1.8 -0.3999999999999999 0  2 -0.3999999999999999 0  -2 -0.2 0  -1.8 -0.2 0  -1.6 -0.2 0  -1.4 -0.2 0  -1.2 -0.2 0  -1 -0.2 0  -0.8 -0.2 0  -0.6000000000000001 -0.2 0  -0.3999999999999999 -0.2 0  -0.2 -0.2 0  0 -0.2 0  0.2000000000000002 -0.2 0  0.3999999999999999 -0.2 0  0.6000000000000001 -0.2 0  0.7999999999999998 -0.2 0  1 -0.2 0  1.2 -0.2 0  1.4 -0.2 0  1.6 -0.2 0  1.8 -0.2 0  2 -0.2 0  -2 0 0  -1.8 0 0  -1.6 0 0  -1.4 0 0  -1.2 0 0  -1 0 0  -0.8 0 0  -0.6000000000000001 0 0  -0.3999999999999999 0 0  -0.2 0 0  0 0 0  0.2000000000000002 0 0  0.3999999999999999 0 0  0.6000000000000001 0 0  0.7999999999999998 0 0  1 0 0  1.2 0 0  1.4 0 0  1.6 0 0  1.8 0 0  2 0 0  -2 0.2000000000000002 0  -1.8 0.2000000000000002 0  -1.6 0.2000000000000002 0  -1.4 0.2000000000000002 0  -1.2 0.2000000000000002 0  -1 0.2000000000000002 0  -0.8 0.2000000000000002 0  -0.6000000000000001 0.2000000000000002 0  -0.3999999999999999 0.2000000000000002 0  -0.2 0.2000000000000002 0  0 0.2000000000000002 0  0.2000000000000002 0.2000000000000002 0  0.3999999999999999 0.2000000000000002 0  0.6000000000000001 0.2000000000000002 0  0.7999999999999998 0.2000000000000002 0  1 0.2000000000000002 0  1.2 0.2000000000000002 0  1.4 0.2000000000000002 0  1.6 0.2000000000000002 0  1.8 0.2000000000000002 0  2 0.2000000000000002 0  -2 0.3999999999999999 0  -1.8 0.3999999999999999 0  -1.6 0.3999999999999999 0  -1.4 0.3999999999999999 0  -1.2 0.3999999999999999 0  -1 0.3999999999999999 0  -0.8 0.3999999999999999 0  -0.6000000000000001 0.3999999999999999 0  -0.3999999999999999 0.3999999999999999 0  -0.2 0.3999999999999999 0  0 0.3999999999999999 0  0.2000000000000002 0.3999999999999999 0  0.3999999999999999 0.3999999999999999 0  0.6000000000000001 0.3999999999999999 0  0.7999999999999998 0.3999999999999999 0  1 0.3999999999999999 0  1.2 0.3999999999999999 0  1.4 0.3999999999999999 0  1.6 0.3999999999999999 0  1.8 0.3999999999999999 0  2 0.3999999999999999 0  -2 0.6000000000000001 0  -1.8 0.6000000000000001 0  -1.6 0.6000000000000001 0  -1.4 0.6000000000000001 0  -1.2 0.6000000000000001 0  -1 0.6000000000000001 0  -0.8 0.6000000000000001 0  -0.6000000000000001 0.6000000000000001 0  -0.3999999999999999 0.6000000000000001 0  -0.2 0.6000000000000001 0  0 0.6000000000000001 0  0.2000000000000002 0.6000000000000001 0  0.3999999999999999 0.6000000000000001 0  0.6000000000000001 0.6000000000000001 0  0.7999999999999998 0.6000000000000001 0  1 0.6000000000000001 0  1.2 0.6000000000000001 0  1.4 0.6000000000000001 0  1.6 0.6000000000000001 0  1.8 0.6000000000000001 0  2 0.6000000000000001 0  -2 0.7999999999999998 0  -1.8 0.7999999999999998 0  -1.6 0.7999999999999998 0  -1.4 0.7999999999999998 0  -1.2 0.7999999999999998 0  -1 0.7999999999999998 0  -0.8 0.7999999999999998 0  -0.6000000000000001 0.7999999999999998 0  -0.3999999999999999 0.7999999999999998 0  -0.2 0.7999999999999998 0  0 0.7999999999999998 0  0.2000000000000002 0.7999999999999998 0  0.3999999999999999 0.7999999999999998 0  0.6000000000000001 0.7999999999999998 0  0.7999999999999998 0.7999999999999998 0  1 0.7999999999999998 0  1.2 0.7999999999999998 0  1.4 0.7999999999999998 0  1.6 0.7999999999999998 0  1.8 0.7999999999999998 0  2 0.7999999999999998 0  -2 1 0  -1.8 1 0  -1.6 1 0  -1.4 1 0  -1.2 1 0  -1 1 0  -0.8 1 0  -0.6000000000000001 1 0  -0.3999999999999999 1 0  -0.2 1 0  0 1 0  0.2000000000000002 1 0  0.3999999999999999 1 0  0.6000000000000001 1 0  0.7999999999999998 1 0  1 1 0  1.2 1 0  1.4 1 0  1.6 1 0  1.8 1 0  2 1 0  -2 1.2 0  -1.8 1.2 0  -1.6 1.2 0  -1.4 1.2 0  -1.2 1.2 0  -1 1.2 0  -0.8 1.2 0  -0.6000000000000001 1.2 0  -0.3999999999999999 1.2 0  -0.2 1.2 0  0 1.2 0  0.2000000000000002 1.2 0  0.3999999999999999 1.2 0  0.6000000000000001 1.2 0  0.7999999999999998 1.2 0  1 1.2 0  1.2 1.2 0  1.4 1.2 0  1.6 1.2 0  1.8 1.2 0  2 1.2 0  -2 1.4 0  -1.8 1.4 0  -1.6 1.4 0  -1.4 1.4 0  -1.2 1.4 0  -1 1.4 0  -0.8 1.4 0  -0.6000000000000001 1.4 0  -0.3999999999999999 1.4 0  -0.2 1.4 0  0 1.4 0  0.2000000000000002 1.4 0  0.3999999999999999 1.4 0  0.6000000000000001 1.4 0  0.7999999999999998 1.4 0  1 1.4 0  1.2 1.4 0  1.4 1.4 0  1.6 1.4 0  1.8 1.4 0  2 1.4 0  -2 1.6 0  -1.8 1.6 0  -1.6 1.6 0  -1.4 1.6 0  -1.2 1.6 0  -1 1.6 0  -0.8 1.6 0  -0.6000000000000001 1.6 0  -0.3999999999999999 1.6 0  -0.2 1.6 0  0 1.6 0  0.2000000000000002 1.6 0  0.3999999999999999 1.6 0  0.6000000000000001 1.6 0  0.7999999999999998 1.6 0  1 1.6 0  1.2 1.6 0  1.4 1.6 0  1.6 1.6 0  1.8 1.6 0  2 1.6 0  -2 1.8 0  -1.8 1.8 0  -1.6 1.8 0  -1.4 1.8 0  -1.2 1.8 0  -1 1.8 0  -0.8 1.8 0  -0.6000000000000001 1.8 0  -0.3999999999999999 1.8 0  -0.2 1.8 0  0 1.8 0  0.2000000000000002 1.8 0  0.3999999999999999 1.8 0  0.6000000000000001 1.8 0  0.7999999999999998 1.8 0  1 1.8 0  1.2 1.8 0  1.4 1.8 0  1.6 1.8 0  1.8 1.8 0  2 1.8 0  -2 2 0  -1.8 2 0  -1.6 2 0  -1.4 2 0  -1.2 2 0  -1 2 0  -0.8 2 0  -0.6000000000000001 2 0  -0.3999999999999999 2 0  -0.2 2 0  0 2 0  0.2000000000000002 2 0  0.3999999999999999 2 0  0.6000000000000001 2 0  0.7999999999999998 2 0  1 2 0  1.2 2 0  1.4 2 0  1.6 2 0  1.8 2 0  2 2 0  </DataArray>
</Points>
<Cells>
[...]
<PointData  Scalars="f_8"> 
<DataArray  type="Float64"  Name="f_8"  format="ascii">9.0870290842543291e-02  8.9029325001555609e-02  8.4574712188818166e-02  7.7892181796914386e-02  6.9553068721127473e-02  6.0224626169235851e-02  5.0577949080033872e-02  4.1208895522054034e-02  3.2583060878481902e-02  2.5009509852791413e-02  1.8641629169493634e-02  1.3498740782473224e-02  9.4998241800522132e-03  6.5008007991204896e-03  4.3286768385565107e-03  2.8085052034918260e-03  1.7817692821470838e-03  1.1168490104421266e-03  7.1347782564288090e-04  5.0358488121996804e-04  4.5084156742614768e-04  9.0210684130421728e-02  8.8758124914745953e-02  8.4571023786040367e-02  7.8060164622232975e-02  6.9812379480307135e-02  6.0509014592238078e-02  5.0836984690791696e-02  4.1409584633629253e-02  3.2709677376812178e-02  2.5061258844435230e-02  1.8628664028851376e-02  1.3437493133362118e-02  9.4086227330181064e-03  6.3964800490815352e-03  4.2244783256642424e-03  2.7131983010538234e-03  1.6996514569266982e-03  1.0481445183793121e-03  6.5460054700886873e-04  4.4669303168743253e-04  3.8199829651202130e-04  9.0166606206472696e-02  8.8741666963384425e-02  8.4603873368122334e-02  7.8138502243331714e-02  6.9918732222259430e-02  6.0621133156240237e-02  5.0934337001310462e-02  4.1477473416994322e-02  3.2741007553415004e-02  2.5056265756053828e-02  1.8593205775930963e-02  1.3380654043569525e-02  9.3403252211657160e-03  6.3256012414850196e-03  4.1577026418696495e-03  2.6545948246005841e-03  1.6508030961774160e-03  1.0085942416741488e-03  6.2240910127111138e-04  4.1900363068721999e-04  3.5566980243795763e-04  9.0201443138421572e-02  8.8779315585484825e-02  8.4647417975463463e-02  7.8186847187345629e-02  6.9967232802819274e-02  6.0663462710345575e-02  5.0964571825697927e-02  4.1491711010717601e-02  3.2738165660122373e-02  2.5038023881068992e-02  1.8563292434088507e-02  1.3343808434930493e-02  9.3012645980498857e-03  6.2882354036304100e-03  4.1247057803433492e-03  2.6273222158202710e-03  1.6294586733184738e-03  9.9252503082864038e-04  6.1041563000812087e-04  4.0959367399181557e-04  3.4722610580980700e-04  9.0227117450212460e-02  8.8804947917529353e-02  8.4672292433236249e-02  7.8209721500348189e-02  6.9986427414351488e-02  6.0677252420877979e-02  5.0971677867903208e-02  4.1491686379393419e-02  3.2731540489734146e-02  2.5026183456865320e-02  1.8548154149043299e-02  1.3327416186956507e-02  9.2854213981153830e-03  6.2742583450949799e-03  4.1133337712664754e-03  2.6187578660823298e-03  1.6234955299796858e-03  9.8870357407653789e-04  6.0816131446224701e-04  4.0830923181381097e-04  3.4633028053311524e-04  9.0236811402979414e-02  8.8814421350432063e-02  8.4680982501531860e-02  7.8217055376014921e-02  6.9991881468551939e-02  6.0680448374222179e-02  5.0972478918663432e-02  4.1490250659855274e-02  3.2728305327272715e-02  2.5021781300243434e-02  1.8543286075827021e-02  1.3322721445725577e-02  9.2813783545036711e-03  6.2711373560712137e-03  4.1112036318108084e-03  2.6175320863760566e-03  1.6229971665001385e-03  9.8872797597311201e-04  6.0852229378645796e-04  4.0886213624969281e-04  3.4697230216319228e-04  9.0238943472537539e-02  8.8816450895694662e-02  8.4682743799449178e-02  7.8218404812442466e-02  6.9992718283675176e-02  6.0680734400229974e-02  5.0972250297888363e-02  4.1489614987332543e-02  3.2727422072470390e-02  2.5020829574736749e-02  1.8542428713114536e-02  1.3322075648285624e-02  9.2810004599814897e-03  6.2710240689267636e-03  4.1113067443277473e-03  2.6177803130886272e-03  1.6233180948618253e-03  9.8906485230824503e-04  6.0884317277118394e-04  4.0916149818664868e-04  3.4726674607708059e-04  9.0239123116298156e-02  8.8816600687705902e-02  8.4682841172115289e-02  7.8218435117967930e-02  6.9992678302817482e-02  6.0680634149880897e-02  5.0972112137182987e-02  4.1489469578288689e-02  3.2727301803773805e-02  2.5020761136024115e-02  1.8542427033153990e-02  1.3322141054896097e-02  9.2811198049000919e-03  6.2711751889213711e-03  4.1114646003581282e-03  2.6179228521112418e-03  1.6234303326418261e-03  9.8914057498865034e-04  6.0888456288959699e-04  4.0917755045615092e-04  3.4727140070301554e-04  9.0239091491233603e-02  8.8816563932103590e-02  8.4682799983366960e-02  7.8218391624013728e-02  6.9992636058702526e-02  6.0680597743887836e-02  5.0972086385643919e-02  4.1489458429176063e-02  3.2727307226449183e-02  2.5020782362830229e-02  1.8542460463990735e-02  1.3322180931353705e-02  9.2811594828799988e-03  6.2712086127770074e-03  4.1114875123561441e-03  2.6179333873387646e-03  1.6234288931146381e-03  9.8912913853242560e-04  6.0886575959274102e-04  4.0915387928068401e-04  3.4724486822571379e-04  9.0239084332149389e-02  8.8816556673924699e-02  8.4682793256352043e-02  7.8218386133497117e-02  6.9992632470586999e-02  6.0680596539514547e-02  5.0972087714291445e-02  4.1489462000730663e-02  3.2727312291201502e-02  2.5020787810933389e-02  1.8542465042085968e-02  1.3322183528687739e-02  9.2811594039219972e-03  6.2712057471193761e-03  4.1114823422028109e-03  2.6179268271055048e-03  1.6234220112889552e-03  9.8912284609010688e-04  6.0886055136491924e-04  4.0914969032357655e-04  3.4724107253010348e-04  9.0239085018944065e-02  8.8816557511246078e-02  8.4682794250679524e-02  7.8218387272871254e-02  6.9992633710680693e-02  6.0680597793822635e-02  5.0972088853922536e-02  4.1489462868102532e-02  3.2727312728599280e-02  2.5020787699607812e-02  1.8542464341902577e-02  1.3322182304993017e-02  9.2811578298496820e-03  6.2712040766787587e-03  4.1114808598534157e-03  2.6179257885349657e-03  1.6234215932346126e-03  9.8912311842860759e-04  6.0886147445083521e-04  4.0915112984097934e-04  3.4724281850149758e-04  9.0239086570069099e-02  8.8816558893333605e-02  8.4682795394481397e-02  7.8218388132525463e-02  6.9992634259754827e-02  6.0680598025157802e-02  5.0972088781978099e-02  4.1489462531462309e-02  3.2727312190160986e-02  2.5020787042608829e-02  1.8542463661118017e-02  1.3322181693930232e-02  9.2811573662503165e-03  6.2712038097185886e-03  4.1114808026532432e-03  2.6179259186640286e-03  1.6234218618741932e-03  9.8912346629634177e-04  6.0886185028939839e-04  4.0915150603710823e-04  3.4724319867625005e-04  9.0239086931545448e-02  8.8816559059991959e-02  8.4682795846903455e-02  7.8218389156793758e-02  6.9992635924189819e-02  6.0680600207005310e-02  5.0972091229215193e-02  4.1489464940851380e-02  3.2727314282532997e-02  2.5020788619659930e-02  1.8542464634108077e-02  1.3322182082396029e-02  9.2811572723419857e-03  6.2712033789947604e-03  4.1114801837725751e-03  2.6179252323576051e-03  1.6234211851064630e-03  9.8912283241002247e-04  6.0886126167574632e-04  4.0915095320312223e-04  3.4724267855018923e-04  9.0239038325518134e-02  8.8816514626694570e-02  8.4682758696660407e-02  7.8218361237673409e-02  6.9992618078351124e-02  6.0680592283123849e-02  5.0972092229074541e-02  4.1489473202091919e-02  3.2727327707571814e-02  2.5020804947071647e-02  1.8542481722859966e-02  1.3322198159493632e-02  9.2811710948638854e-03  6.2712142836648787e-03  4.1114880303774887e-03  2.6179302759980387e-03  1.6234239249125041e-03  9.8912387801206730e-04  6.0886123867757611e-04  4.0915044491969006e-04  3.4724218332232644e-04  9.0238884964754226e-02  8.8816375126955102e-02  8.4682627239671307e-02  7.8218233489778730e-02  6.9992492961598471e-02  6.0680472462588682e-02  5.0971983256174018e-02  4.1489381676793849e-02  3.2727259147549863e-02  2.5020762106562899e-02  1.8542463865643448e-02  1.3322201389152992e-02  9.2811894730206266e-03  6.2712412676109329e-03  4.1115177726597811e-03  2.6179584887456413e-03  1.6234482155385486e-03  9.8914362009683374e-04  6.0887711232669056e-04  4.0916377725203480e-04  3.4725418579349422e-04  9.0239598837004178e-02  8.8817054487616051e-02  8.4683148758607010e-02  7.8218502762593470e-02  6.9992458039768127e-02  6.0680130828017251e-02  5.0971379522306577e-02  4.1488595815442425e-02  3.2726388211553221e-02  2.5019900503341800e-02  1.8541687297390478e-02  1.3321557809147793e-02  9.2806978041747451e-03  6.2708963231111938e-03  4.1112985477347484e-03  2.6178368965167950e-03  1.6233960851678006e-03  9.8913684654222613e-04  6.0889681627844029e-04  4.0919499690961122e-04  3.4728298393273127e-04  9.0246624867512185e-02  8.8823755038831206e-02  8.4688955777686620e-02  7.8222921056448180e-02  6.9995124993978655e-02  6.0680878459314143e-02  5.0970269548181145e-02  4.1485908461942264e-02  3.2722564512021261e-02  2.5015455073895344e-02  1.8537116851973817e-02  1.3317268458033670e-02  9.2769646003518155e-03  6.2678567728269366e-03  4.1089724489769674e-03  2.6161602655567265e-03  1.6222570507432967e-03  9.8840467055937042e-04  6.0843968017690808e-04  4.0888636750211686e-04  3.4699947386232353e-04  9.0272040763472075e-02  8.8848489204133754e-02  8.4711917158813127e-02  7.8242711517531871e-02  7.0010242946789342e-02  6.0690092807811243e-02  5.0972969407919316e-02  4.1482286129285367e-02  3.2713579891569873e-02  2.5002615938999911e-02  1.8522162605826106e-02  1.3301856302514750e-02  9.2624339327792831e-03  6.2551073984828251e-03  4.0984526443675140e-03  2.6079338981881113e-03  1.6161088767503023e-03  9.8394705675687870e-04  6.0519656661570142e-04  4.0634546814815464e-04  3.4463727024600690e-04  9.0316943296169808e-02  8.8895359817348862e-02  8.4762394039793715e-02  7.8294574087961810e-02  7.0058547029134721e-02  6.0729098389315145e-02  5.0997974770194542e-02  4.1490840954041819e-02  3.2705882299091424e-02  2.4981174835757826e-02  1.8490983944620377e-02  1.3265470287536331e-02  9.2250353730773671e-03  6.2199748541568673e-03  4.0676923024775191e-03  2.5824994016256284e-03  1.5959972761194837e-03  9.6846349753462106e-04  5.9320435470699268e-04  3.9645877979260481e-04  3.3535897413733353e-04  9.0294124265181824e-02  8.8901666629288612e-02  8.4815165211770044e-02  7.8387731480900821e-02  7.0173894090970745e-02  6.0844789564578200e-02  5.1094625933621331e-02  4.1555266884054226e-02  3.2732518089144048e-02  2.4971537073678041e-02  1.8451806901489780e-02  1.3206270331178183e-02  9.1557811574232272e-03  6.1493230021828441e-03  4.0019787797772538e-03  2.5254409933782415e-03  1.5489078419956095e-03  9.3073867931945753e-04  5.6286028217329828e-04  3.7060051558262440e-04  3.1059054038899730e-04  8.9645598572372601e-02  8.8635184409757775e-02  8.4815252969330235e-02  7.8561818933774896e-02  7.0442713699792991e-02  6.1141289830140305e-02  5.1366382023760669e-02  4.1766961812073254e-02  3.2866559124697367e-02  2.5026214710391747e-02  1.8437428697833914e-02  1.3140276729152484e-02  9.0579599952364566e-03  6.0379900835197554e-03  3.8915592162462858e-03  2.4254450513346462e-03  1.4639647619941124e-03  8.6117267233576790e-04  5.0523398967652552e-04  3.1763542142291797e-04  2.4980033398072708e-04  </DataArray> 
</PointData> 
</Piece>
</UnstructuredGrid>
</VTKFile>