<?xml version="1.0"?>
<VTKFile type="UnstructuredGrid"  version="0.1"  >
<UnstructuredGrid>
<Piece  NumberOfPoints="441" NumberOfCells="800">
<Points>
<DataArray  type="Float64"  NumberOfComponents="3"  format="ascii">-2 -2 0  -1.8 -2 0  -1.6 -2 0  -1.4 -2 0  -1.2 -2 0  -1 -2 0  -0.8 -2 0  -0.6000000000000001 -2 0  -0.3999999999999999 -2 0  -0.2 -2 0  0 -2 0  0.2000000000000002 -2 0  0.3999999999999999 -2 0  0.6000000000000001 -2 0  0.7999999999999998 -2 0  1 -2 0  1.2 -2 0  1.4 -2 0  1.6 -2 0  1.8 -2 0  2 -2 0  -2 -1.8 0  -1.8 -1.8 0  -1.6 -1.8 0  -1.4 -1.8 0  -1.2 -1.8 0  -1 -1.8 0  -0.8 -1.8 0  -0.6000000000000001 -1.8 0  -0.3999999999999999 -1.8 0  -0.2 -1.8 0  0 -1.8 0  0.2000000000000002 -1.8 0  0.3999999999999999 -1.8 0  0.6000000000000001 -1.8 0  0.7999999999999998 -1.8 0  1 -1.8 0  1.2 -1.8 0  1.4 -1.8 0  1.6 -1.8 0  1.8 -1.8 0  2 -1.8 0  -2 -1.6 0  -1.8 -1.6 0  -1.6 -1.6 0  -1.4 -1.6 0  -1.2 -1.6 0  -1 -1.6 0  -0.8 -1.6 0  -0.6000000000000001 -1.6 0  -0.3999999999999999 -1.6 0  -0.2 -1.6 0  0 -1.6 0  0.2000000000000002 -1.6 0  0.3999999999999999 -1.6 0  0.6000000000000001 -1.6 0  0.7999999999999998 -1.6 0  1 -1.6 0  1.2 -1.6 0  1.4 -1.6 0  1.6 -1.6 0  1.8 -1.6 0  2 -1.6 0  -2 -1.4 0  -1.8 -1.4 0  -1.6 -1.4 0  -1.4 -1.4 0  -1.2 -1.4 0  -1 -1.4 0  -0.8 -1.4 0  -0.6000000000000001 -1.4 0  -0.3999999999999999 -1.4 0  -0.2 -1.4 0  0 -1.4 0  0.2000000000000002 -1.4 0  0.3999999999999999 -1.4 0  0.6000000000000001 -1.4 0  0.7999999999999998 -1.4 0  1 -1.4 0  1.2 -1.4 0  1.4 -1.4 0  1.6 -1.4 0  1.8 -1.4 0  2 -1.4 0  -2 -1.2 0  -1.8 -1.2 0  -1.6 -1.2 0  -1.4 -1.2 0  -1.2 -1.2 0  -1 -1.2 0  -0.8 -1.2 0  -0.6000000000000001 -1.2 0  -0.3999999999999999 -1.2 0  -0.2 -1.2 0  0 -1.2 0  0.2000000000000002 -1.2 0  0.3999999999999999 -1.2 0  0.6000000000000001 -1.2 0  0.7999999999999998 -1.2 0  1 -1.2 0  1.2 -1.2 0  1.4 -1.2 0  1.6 -1.2 0  1.8 -1.2 0  2 -1.2 0  -2 -1 0  -1.8 -1 0  -1.6 -1 0  -1.4 -1 0  -1.2 -1 0  -1 -1 0  -0.8 -1 0  -0.6000000000000001 -1 0  -0.3999999999999999 -1 0  -0.2 -1 0  0 -1 0  0.2000000000000002 -1 0  0.3999999999999999 -1 0  0.6000000000000001 -1 0  0.7999999999999998 -1 0  1 -1 0  1.2 -1 0  1.4 -1 0  1.6 -1 0  1.8 -1 0  2 -1 0  -2 -0.8 0  -1.8 -0.8 0  -1.6 -0.8 0  -1.4 -0.8 0  -1.2 -0.8 0  -1 -0.8 0  -0.8 -0.8 0  -0.6000000000000001 -0.8 0  -0.3999999999999999 -0.8 0  -0.2 -0.8 0  0 -0.8 0  0.2000000000000002 -0.8 0  0.3999999999999999 -0.8 0  0.6000000000000001 -0.8 0  0.7999999999999998 -0.8 0  1 -0.8 0  1.2 -0.8 0  1.4 -0.8 0  1.6 -0.8 0  1.8 -0.8 0  2 -0.8 0  -2 -0.6000000000000001 0  -1.8 -0.6000000000000001 0  -1.6 -0.6000000000000001 0  -1.4 -0.6000000000000001 0  -1.2 -0.6000000000000001 0  -1 -0.6000000000000001 0  -0.8 -0.6000000000000001 0  -0.6000000000000001 -0.6000000000000001 0  -0.3999999999999999 -0.6000000000000001 0  -0.2 -0.6000000000000001 0  0 -0.6000000000000001 0  0.2000000000000002 -0.6000000000000001 0  0.3999999999999999 -0.6000000000000001 0  0.6000000000000001 -0.6000000000000001 0  0.7999999999999998 -0.6000000000000001 0  1 -0.6000000000000001 0  1.2 -0.6000000000000001 0  1.4 -0.6000000000000001 0  1.6 -0.6000000000000001 0  1.8 -0.6000000000000001 0  2 -0.6000000000000001 0  -2 -0.3999999999999999 0  -1.8 -0.3999999999999999 0  -1.6 -0.3999999999999999 0  -1.4 -0.3999999999999999 0  -1.2 -0.3999999999999999 0  -1 -0.3999999999999999 0  -0.8 -0.3999999999999999 0  -0.6000000000000001 -0.3999999999999999 0  -0.3999999999999999 -0.3999999999999999 0  -0.2 -0.3999999999999999 0  0 -0.3999999999999999 0  0.2000000000000002 -0.3999999999999999 0  0.3999999999999999 -0.3999999999999999 0  0.6000000000000001 -0.3999999999999999 0  0.7999999999999998 -0.3999999999999999 0  1 -0.3999999999999999 0  1.2 -0.3999999999999999 0  1.4 -0.3999999999999999 0  1.6 -0.3999999999999999 0  1.8 -0.3999999999999999 0  2 -0.3999999999999999 0  -2 -0.2 0  -1.8 -0.2 0  -1.6 -0.2 0  -1.4 -0.2 0  -1.2 -0.2 0  -1 -0.2 0  -0.8 -0.2 0  -0.6000000000000001 -0.2 0  -0.3999999999999999 -0.2 0  -0.2 -0.2 0  0 -0.2 0  0.2000000000000002 -0.2 0  0.3999999999999999 -0.2 0  0.6000000000000001 -0.2 0  0.7999999999999998 -0.2 0  1 -0.2 0  1.2 -0.2 0  1.4 -0.2 0  1.6 -0.2 0  1.8 -0.2 0  2 -0.2 0  -2 0 0  -1.8 0 0  -1.6 0 0  -1.4 0 0  -1.2 0 0  -1 0 0  -0.8 0 0  -0.6000000000000001 0 0  -0.3999999999999999 0 0  -0.2 0 0  0 0 0  0.2000000000000002 0 0  0.3999999999999999 0 0  0.6000000000000001 0 0  0.7999999999999998 0 0  1 0 0  1.2 0 0  1.4 0 0  1.6 0 0  1.8 0 0  2 0 0  -2 0.2000000000000002 0  -1.8 0.2000000000000002 0  -1.6 0.2000000000000002 0  -1.4 0.2000000000000002 0  -1.2 0.2000000000000002 0  -1 0.2000000000000002 0  -0.8 0.2000000000000002 0  -0.6000000000000001 0.2000000000000002 0  -0.3999999999999999 0.2000000000000002 0  -0.2 0.2000000000000002 0  0 0.2000000000000002 0  0.2000000000000002 0.2000000000000002 0  0.3999999999999999 0.2000000000000002 0  0.6000000000000001 0.2000000000000002 0  0.7999999999999998 0.2000000000000002 0  1 0.2000000000000002 0  1.2 0.2000000000000002 0  1.4 0.2000000000000002 0  1.6 0.2000000000000002 0  1.8 0.2000000000000002 0  2 0.2000000000000002 0  -2 0.3999999999999999 0  -1.8 0.3999999999999999 0  -1.6 0.3999999999999999 0  -1.4 0.3999999999999999 0  -1.2 0.3999999999999999 0  -1 0.3999999999999999 0  -0.8 0.3999999999999999 0  -0.6000000000000001 0.3999999999999999 0  -0.3999999999999999 0.3999999999999999 0  -0.2 0.3999999999999999 0  0 0.3999999999999999 0  0.2000000000000002 0.3999999999999999 0  0.3999999999999999 0.3999999999999999 0  0.6000000000000001 0.3999999999999999 0  0.7999999999999998 0.3999999999999999 0  1 0.3999999999999999 0  1.2 0.3999999999999999 0  1.4 0.3999999999999999 0  1.6 0.3999999999999999 0  1.8 0.3999999999999999 0  2 0.3999999999999999 0  -2 0.6000000000000001 0  -1.8 0.6000000000000001 0  -1.6 0.6000000000000001 0  -1.4 0.6000000000000001 0  -1.2 0.6000000000000001 0  -1 0.6000000000000001 0  -0.8 0.6000000000000001 0  -0.6000000000000001 0.6000000000000001 0  -0.3999999999999999 0.6000000000000001 0  -0.2 0.6000000000000001 0  0 0.6000000000000001 0  0.2000000000000002 0.6000000000000001 0  0.3999999999999999 0.6000000000000001 0  0.6000000000000001 0.6000000000000001 0  0.7999999999999998 0.6000000000000001 0  1 0.6000000000000001 0  1.2 0.6000000000000001 0  1.4 0.6000000000000001 0  1.6 0.6000000000000001 0  1.8 0.6000000000000001 0  2 0.6000000000000001 0  -2 0.7999999999999998 0  -1.8 0.7999999999999998 0  -1.6 0.7999999999999998 0  -1.4 0.7999999999999998 0  -1.2 0.7999999999999998 0  -1 0.7999999999999998 0  -0.8 0.7999999999999998 0  -0.6000000000000001 0.7999999999999998 0  -0.3999999999999999 0.7999999999999998 0  -0.2 0.7999999999999998 0  0 0.7999999999999998 0  0.2000000000000002 0.7999999999999998 0  0.3999999999999999 0.7999999999999998 0  0.6000000000000001 0.7999999999999998 0  0.7999999999999998 0.7999999999999998 0  1 0.7999999999999998 0  1.2 0.7999999999999998 0  1.4 0.7999999999999998 0  1.6 0.7999999999999998 0  1.8 0.7999999999999998 0  2 0.7999999999999998 0  -2 1 0  -1.8 1 0  -1.6 1 0  -1.4 1 0  -1.2 1 0  -1 1 0  -0.8 1 0  -0.6000000000000001 1 0  -0.3999999999999999 1 0  -0.2 1 0  0 1 0  0.2000000000000002 1 0  0.3999999999999999 1 0  0.6000000000000001 1 0  0.7999999999999998 1 0  1 1 0  1.2 1 0  1.4 1 0  1.6 1 0  1.8 1 0  2 1 0  -2 1.2 0  -1.8 1.2 0  -1.6 1.2 0  -1.4 1.2 0  -1.2 1.2 0  -1 1.2 0  -0.8 1.2 0  -0.6000000000000001 1.2 0  -0.3999999999999999 1.2 0  -0.2 1.2 0  0 1.2 0  0.2000000000000002 1.2 0  0.3999999999999999 1.2 0  0.6000000000000001 1.2 0  0.7999999999999998 1.2 0  1 1.2 0  1.2 1.2 0  1.4 1.2 0  1.6 1.2 0  1.8 1.2 0  2 1.2 0  -2 1.4 0  -1.8 1.4 0  -1.6 1.4 0  -1.4 1.4 0  -1.2 1.4 0  -1 1.4 0  -0.8 1.4 0  -0.6000000000000001 1.4 0  -0.3999999999999999 1.4 0  -0.2 1.4 0  0 1.4 0  0.2000000000000002 1.4 0  0.3999999999999999 1.4 0  0.6000000000000001 1.4 0  0.7999999999999998 1.4 0  1 1.4 0  1.2 1.4 0  1.4 1.4 0  1.6 1.4 0  1.8 1.4 0  2 1.4 0  -2 1.6 0  -1.8 1.6 0  -1.6 1.6 0  -1.4 1.6 0  -1.2 1.6 0  -1 1.6 0  -0.8 1.6 0  -0.6000000000000001 1.6 0  -0.3999999999999999 1.6 0  -0.2 1.6 0  0 1.6 0  0.2000000000000002 1.6 0  0.3999999999999999 1.6 0  0.6000000000000001 1.6 0  0.7999999999999998 1.6 0  1 1.6 0  1.2 1.6 0  1.4 1.6 0  1.6 1.6 0  1.8 1.6 0  2 1.6 0  -2 1.8 0  -1.8 1.8 0  -1.6 1.8 0  -1.4 1.8 0  -1.2 1.8 0  -1 1.8 0  -0.8 1.8 0  -0.6000000000000001 1.8 0  -0.3999999999999999 1.8 0  -0.2 1.8 0  0 1.8 0  0.2000000000000002 1.8 0  0.3999999999999999 1.8 0  0.6000000000000001 1.8 0  0.7999999999999998 1.8 0  1 1.8 0  1.2 1.8 0  1.4 1.8 0  1.6 1.8 0  1.8 1.8 0  2 1.8 0  -2 2 0  -1.8 2 0  -1.6 2 0  -1.4 2 0  -1.2 2 0  -1 2 0  -0.8 2 0  -0.6000000000000001 2 0  -0.3999999999999999 2 0  -0.2 2 0  0 2 0  0.2000000000000002 2 0  0.3999999999999999 2 0  0.6000000000000001 2 0  0.7999999999999998 2 0  1 2 0  1.2 2 0  1.4 2 0  1.6 2 0  1.8 2 0  2 2 0  </DataArray>
</Points>
<Cells>
[...]
<PointData  Scalars="f_8"> 
<DataArray  type="Float64"  Name="f_8"  format="ascii">7.1345400925995365e-03  0.0000000000000000e+00  0.0000000000000000e+00  0.0000000000000000e+00  0.0000000000000000e+00  0.0000000000000000e+00  0.0000000000000000e+00  0.0000000000000000e+00  0.0000000000000000e+00  0.0000000000000000e+00  0.0000000000000000e+00  0.0000000000000000e+00  0.0000000000000000e+00  0.0000000000000000e+00  0.0000000000000000e+00  0.0000000000000000e+00  0.0000000000000000e+00  0.0000000000000000e+00  0.0000000000000000e+00  0.0000000000000000e+00  0.0000000000000000e+00  7.5584270006048462e-02  7.4971039152756255e-02  7.3947474401759625e-02  7.2494425960412140e-02  7.0603819787213848e-02  6.8281297749120187e-02  6.5542385549457002e-02  6.2409748795107099e-02  5.8911105186543633e-02  5.5077552806611856e-02  5.0942187935163384e-02  4.6538951758994272e-02  4.1901682174933480e-02  3.7063365661292660e-02  3.2055591728057553e-02  2.6908213093617524e-02  2.1649211401856990e-02  1.6304763118605570e-02  1.0899494955316478e-02  5.4569143581512962e-03  0.0000000000000000e+00  1.4460587004070935e-01  1.4402461353971549e-01  1.4243995149463817e-01  1.3988430393554707e-01  1.3639404758875473e-01  1.3201191910087612e-01  1.2678758903944254e-01  1.2077713894910137e-01  1.1404190383112887e-01  1.0664698110785450e-01  9.8659614423740896e-02  9.0147604510241119e-02  8.1177861956933106e-02  7.1815188348652276e-02  6.2121347764170505e-02  5.2154467672701467e-02  4.1968785904469584e-02  3.1614738510788672e-02  2.1139362219586701e-02  1.0586965104221455e-02  0.0000000000000000e+00  2.0532042008486959e-01  2.0456449493501871e-01  2.0239564388505271e-01  1.9884281315529045e-01  1.9395062291241730e-01  1.8777766980149327e-01  1.8039468252542976e-01  1.7188243905206493e-01  1.6232947470068684e-01  1.5182967082453636e-01  1.4047984019024681e-01  1.2837743118382430e-01  1.1561846599604268e-01  1.0229581214795007e-01  8.8497864802450574e-02  7.4307691297501699e-02  5.9802660979718494e-02  4.5054554344797652e-02  3.0130117262429482e-02  1.5092000170522368e-02  0.0000000000000000e+00  2.5512242039207117e-01  2.5421652580128540e-01  2.5155814090812678e-01  2.4718020543985661e-01  2.4113561618333679e-01  2.3349537709876514e-01  2.2434625283532925e-01  2.1378803414368985e-01  2.0193054051838116e-01  1.8889050035255453e-01  1.7478845662667211e-01  1.5974584484341450e-01  1.4388237949098751e-01  1.2731386663913319e-01  1.1015053476114435e-01  9.2495945269849694e-02  7.4446510479270547e-02  5.6091611756440965e-02  3.7514276492250143e-02  1.8792341075636366e-02  0.0000000000000000e+00  2.9335990932440054e-01  2.9233897659623637e-01  2.8930383610186106e-01  2.8429142363739895e-01  2.7736159196906329e-01  2.6859510565707695e-01  2.5809100941747976e-01  2.4596350816009774e-01  2.3233851817168133e-01  2.1735006253674871e-01  2.0113668862879547e-01  1.8383808078799174e-01  1.6559202725371538e-01  1.4653187781879504e-01  1.2678459884155205e-01  1.0646949693445784e-01  8.5697643870072643e-02  6.4571995179802638e-02  4.3188155763359840e-02  2.1635709674551442e-02  0.0000000000000000e+00  3.2083521001726972e-01  3.1973041817824094e-01  3.1642332958763442e-01  3.1095387879716896e-01  3.0338703616229945e-01  2.9381065444596455e-01  2.8233262356617495e-01  2.6907748176243801e-01  2.5418265744434987e-01  2.3779453217004490e-01  2.2006452081526587e-01  2.0114535983922679e-01  1.8118777903917513e-01  1.6033770730115607e-01  1.3873413010195709e-01  1.1650767780865484e-01  9.3779981356671274e-02  7.0663788018431595e-02  4.7263787078807969e-02  2.3678055585062929e-02  0.0000000000000000e+00  3.3924715890454138e-01  3.3808380880842870e-01  3.3459226092893618e-01  3.2881450687787273e-01  3.2081899027322491e-01  3.1069834735044782e-01  2.9856641523338140e-01  2.8455466302891036e-01  2.6880822900496543e-01  2.5148176476497303e-01  2.3273529367994608e-01  2.1273028568141714e-01  1.9162613431308190e-01  1.6957719576017904e-01  1.4673051503143331e-01  1.2322432359193274e-01  9.9187347866275283e-02  7.4738921638491537e-02  4.9989849979316492e-02  2.5043930335502933e-02  0.0000000000000000e+00  3.5058308730507981e-01  3.4938077801073458e-01  3.4577289948674039e-01  3.3980275642545171e-01  3.3154097235911706e-01  3.2108316406787529e-01  3.0854685923520064e-01  2.9406781691879041e-01  2.7779593958136706e-01  2.5989098385040688e-01  2.4051828392560282e-01  2.1984469640174759e-01  1.9803495868682530e-01  1.7524862627565249e-01  1.5163771854859084e-01  1.2734516060311310e-01  1.0250406230061888e-01  7.7237827793722028e-02  5.1661041885001993e-02  2.5881036141066457e-02  0.0000000000000000e+00  3.5660328644806394e-01  3.5537718979662863e-01  3.5170454415481484e-01  3.4562940071407805e-01  3.3722358641940586e-01  3.2658434318167889e-01  3.1383119747838523e-01  2.9910222225390881e-01  2.8254988275246051e-01  2.6433667672784089e-01  2.4463078642594149e-01  2.2360195458896334e-01  2.0141777994926574e-01  1.7824060038390921e-01  1.5422509577270560e-01  1.2951669977643615e-01  1.0425086267449757e-01  7.8553158687492408e-02  5.2540183499114303e-02  2.6321143510201622e-02  0.0000000000000000e+00  3.5848834681850139e-01  3.5725117642270615e-01  3.5355471751692169e-01  3.4744330867389162e-01  3.3898920614014127e-01  3.2829021247912249e-01  3.1546653143953968e-01  3.0065701163580527e-01  2.8401497153600674e-01  2.6570381720320341e-01  2.4589267127073272e-01  2.2475222650700288e-01  2.0245102050326391e-01  1.7915230062019427e-01  1.5501161204659619e-01  1.3017519879901801e-01  1.0477926018311720e-01  7.8950056274177075e-02  5.2804808008194211e-02  2.6453293047214069e-02  0.0000000000000000e+00  3.5664802737042117e-01  3.5541254402811345e-01  3.5173042032211399e-01  3.4564583790135228e-01  3.3723075775645539e-01  3.2658256131717545e-01  3.1382092116658672e-01  2.9908406309047020e-01  2.8252461097967185e-01  2.6430522499853726e-01  2.4459425046912422e-01  2.2356158985389268e-01  2.0137499350853902e-01  1.7819693763592631e-01  1.5418222178311183e-01  1.2947637541796564e-01  1.0421491604569245e-01  7.8523452593818016e-02  5.2518580046863168e-02  2.6309467077910237e-02  0.0000000000000000e+00  3.5066178333091952e-01  3.4944367149132671e-01  3.4581979786743750e-01  3.3983365540806681e-01  3.3155606810341792e-01  3.2108287122953066e-01  3.0853183280942187e-01  2.9403897539378226e-01  2.7775448663492230e-01  2.5983842576096344e-01  2.4045644001590857e-01  2.1977570017565098e-01  1.9796124783266861e-01  1.7517292035889029e-01  1.5156298396022427e-01  1.2727456312353444e-01  1.0244090843275482e-01  7.7185496767517819e-02  5.1622910892261786e-02  2.5860401884692196e-02  0.0000000000000000e+00  3.3933610641598111e-01  3.3815681207338405e-01  3.3464899721337626e-01  3.2885475082547050e-01  3.2084264571492810e-01  3.1070549274726650e-01  2.9855735846125697e-01  2.8453000035536469e-01  2.6876890263308839e-01  2.5142911325222789e-01  2.3267108987206864e-01  2.1265675750639645e-01  1.9154596480743272e-01  1.6949349998338423e-01  1.4664679298591685e-01  1.2314438981818429e-01  9.9115239934484400e-02  7.4678791217709442e-02  4.9945841444781938e-02  2.5020052893733592e-02  0.0000000000000000e+00  3.2089613416449636e-01  3.1978489032475299e-01  3.1647081850215791e-01  3.1099364260500706e-01  3.0341819263706443e-01  2.9383227727425193e-01  2.8234385651088922e-01  2.6907766134595540e-01  2.5417143413420845e-01  2.3777198008935480e-01  2.2003122669295538e-01  2.0110248320679580e-01  1.8113707748963215e-01  1.6028152284785835e-01  1.3867533518616412e-01  1.1644958216564237e-01  9.3726203612206016e-02  7.0618098397018797e-02  4.7229929811035236e-02  2.3659561360763574e-02  0.0000000000000000e+00  2.9334291717289751e-01  2.9233692740865957e-01  2.8931578488958959e-01  2.8431566168450462e-01  2.7739578582664270e-01  2.6863647675299274e-01  2.5813654044730500e-01  2.4601016100721632e-01  2.3238344768489624e-01  2.1739081097906823e-01  2.0117134692893882e-01  1.8386540481037245e-01  1.6561150007140360e-01  1.4654371231565053e-01  1.2678967873809618e-01  1.0646925834806448e-01  8.5693903577620759e-02  6.4566735624421390e-02  4.3183280299449484e-02  2.1632784338431060e-02  0.0000000000000000e+00  2.5497726517500735e-01  2.5411908808835065e-01  2.5150654999707961e-01  2.4717109580069860e-01  2.4116438425218695e-01  2.3355648652944463e-01  2.2443356588279087e-01  2.1389514765167641e-01  2.0205110635234466e-01  1.8901851169886802e-01  1.7491848352430325e-01  1.5987320485360451e-01  1.4400323268931195e-01  1.2742522815622595e-01  1.1025020281526220e-01  9.2582347850311678e-02  7.4518479313313513e-02  5.6148097631829826e-02  3.7554025078420046e-02  1.8813552704592451e-02  0.0000000000000000e+00  2.0501744752967191e-01  2.0434866916511232e-01  2.0226294866176964e-01  1.9878706271999380e-01  1.9396393372476203e-01  1.8785094782251732e-01  1.8051809124066059e-01  1.7204583235009532e-01  1.6252278388073457e-01  1.5204323502055692e-01  1.4070466852054886e-01  1.2860538479686112e-01  1.1584234955150083e-01  1.0250936724439509e-01  8.8695662274779083e-02  7.4484924893649648e-02  5.9954851398517660e-02  4.5177179696181909e-02  3.0218193414576284e-02  1.5139641817278369e-02  0.0000000000000000e+00  1.4416566738777151e-01  1.4370845315604416e-01  1.4223881451742523e-01  1.3978680367847868e-01  1.3638760819522264e-01  1.3208346672868337e-01  1.2692399197531071e-01  1.2096552447482083e-01  1.1426990926732834e-01  1.0690295770988160e-01  9.8932782432403943e-02  9.0428148110614462e-02  8.1456949824641689e-02  7.2084906330021015e-02  6.2374533549592069e-02  5.2384442223491048e-02  4.2168982485489608e-02  3.1778237517287880e-02  2.1258349214399796e-02  1.0652142187296133e-02  0.0000000000000000e+00  7.5118042340451580e-02  7.4651712517969093e-02  7.3751839621320384e-02  7.2398986104383098e-02  7.0590153811282419e-02  6.8334248791820096e-02  6.5648970416096353e-02  6.2558522922659093e-02  5.9091810682814112e-02  5.5280934518835062e-02  5.1159898373156584e-02  4.6763488655214028e-02  4.2126317551996431e-02  3.7282035373624102e-02  3.2262721052351749e-02  2.7098457634001195e-02  2.1817093193300312e-02  1.6444178493716440e-02  1.1003061759254485e-02  5.5151084805244738e-03  0.0000000000000000e+00  6.9208942493853131e-03  0.0000000000000000e+00  0.0000000000000000e+00  0.0000000000000000e+00  0.0000000000000000e+00  0.0000000000000000e+00  0.0000000000000000e+00  0.0000000000000000e+00  0.0000000000000000e+00  0.0000000000000000e+00  0.0000000000000000e+00  0.0000000000000000e+00  0.0000000000000000e+00  0.0000000000000000e+00  0.0000000000000000e+00  0.0000000000000000e+00  0.0000000000000000e+00  0.0000000000000000e+00  0.0000000000000000e+00  0.0000000000000000e+00  0.0000000000000000e+00  </DataArray> 
</PointData> 
</Piece>
</UnstructuredGrid>
</VTKFile>