<?xml version="1.0"?>
<VTKFile type="UnstructuredGrid"  version="0.1"  >
<UnstructuredGrid>
<Piece  NumberOfPoints="441" NumberOfCells="800">
<Points>
<DataArray  type="Float64"  NumberOfComponents="3"  format="ascii">-2 -2 0  -1.8 -2 0  -1.6 -2 0  -1.4 -2 0  -1.2 -2 0  -1 -2 0  -0.8 -2 0  -0.6000000000000001 -2 0  -0.3999999999999999 -2 0  -0.2 -2 0  0 -2 0  0.2000000000000002 -2 0  0.3999999999999999 -2 0  0.6000000000000001 -2 0  0.7999999999999998 -2 0  1 -2 0  1.2 -2 0  1.4 -2 0  1.6 -2 0  1.8 -2 0  2 -2 0  -2 -1.8 0  -1.8 -1.8 0  -1.6 -1.8 0  -1.4 -1.8 0  -1.2 -1.8 0  -1 -1.8 0  -0.8 -1.8 0  -0.6000000000000001 -1.8 0  -0.3999999999999999 -1.8 0  -0.2 -1.8 0  0 -1.8 0  0.2000000000000002 -1.8 0  0.3999999999999999 -1.8 0  0.6000000000000001 -1.8 0  0.7999999999999998 -1.8 0  1 -1.8 0  1.2 -1.8 0  1.4 -1.8 0  1.6 -1.8 0  1.8 -1.8 0  2 -1.8 0  -2 -1.6 0  -1.8 -1.6 0  -1.6 -1.6 0  -1.4 -1.6 0  -1.2 -1.6 0  -1 -1.6 0  -0.8 -1.6 0  -0.6000000000000001 -1.6 0  -0.3999999999999999 -1.6 0  -0.2 -1.6 0  0 -1.6 0  0.2000000000000002 -1.6 0  0.3999999999999999 -1.6 0  0.6000000000000001 -1.6 0  0.7999999999999998 -1.6 0  1 -1.6 0  1.2 -1.6 0  1.4 -1.6 0  1.6 -1.6 0  1.8 -1.6 0  2 -1.6 0  -2 -1.4 0  -1.8 -1.4 0  -1.6 -1.4 0  -1.4 -1.4 0  -1.2 -1.4 0  -1 -1.4 0  -0.8 -1.4 0  -0.6000000000000001 -1.4 0  -0.3999999999999999 -1.4 0  -0.2 -1.4 0  0 -1.4 0  0.2000000000000002 -1.4 0  0.3999999999999999 -1.4 0  0.6000000000000001 -1.4 0  0.7999999999999998 -1.4 0  1 -1.4 0  1.2 -1.4 0  1.4 -1.4 0  1.6 -1.4 0  1.8 -1.4 0  2 -1.4 0  -2 -1.2 0  -1.8 -1.2 0  -1.6 -1.2 0  -1.4 -1.2 0  -1.2 -1.2 0  -1 -1.2 0  -0.8 -1.2 0  -0.6000000000000001 -1.2 0  -0.3999999999999999 -1.2 0  -0.2 -1.2 0  0 -1.2 0  0.2000000000000002 -1.2 0  0.3999999999999999 -1.2 0  0.6000000000000001 -1.2 0  0.7999999999999998 -1.2 0  1 -1.2 0  1.2 -1.2 0  1.4 -1.2 0  1.6 -1.2 0  1.8 -1.2 0  2 -1.2 0  -2 -1 0  -1.8 -1 0  -1.6 -1 0  -1.4 -1 0  -1.2 -1 0  -1 -1 0  -0.8 -1 0  -0.6000000000000001 -1 0  -0.3999999999999999 -1 0  -0.2 -1 0  0 -1 0  0.2000000000000002 -1 0  0.3999999999999999 -1 0  0.6000000000000001 -1 0  0.7999999999999998 -1 0  1 -1 0  1.2 -1 0  1.4 -1 0  1.6 -1 0  1.8 -1 0  2 -1 0  -2 -0.8 0  -1.8 -0.8 0  -1.6 -0.8 0  -1.4 -0.8 0  -1.2 -0.8 0  -1 -0.8 0  -0.8 -0.8 0  -0.6000000000000001 -0.8 0  -0.3999999999999999 -0.8 0  -0.2 -0.8 0  0 -0.8 0  0.2000000000000002 -0.8 0  0.3999999999999999 -0.8 0  0.6000000000000001 -0.8 0  0.7999999999999998 -0.8 0  1 -0.8 0  1.2 -0.8 0  1.4 -0.8 0  1.6 -0.8 0  1.8 -0.8 0  2 -0.8 0  -2 -0.6000000000000001 0  -1.8 -0.6000000000000001 0  -1.6 -0.6000000000000001 0  -1.4 -0.6000000000000001 0  -1.2 -0.6000000000000001 0  -1 -0.6000000000000001 0  -0.8 -0.6000000000000001 0  -0.6000000000000001 -0.6000000000000001 0  -0.3999999999999999 -0.6000000000000001 0  -0.2 -0.6000000000000001 0  0 -0.6000000000000001 0  0.2000000000000002 -0.6000000000000001 0  0.3999999999999999 -0.6000000000000001 0  0.6000000000000001 -0.6000000000000001 0  0.7999999999999998 -0.6000000000000001 0  1 -0.6000000000000001 0  1.2 -0.6000000000000001 0  1.4 -0.6000000000000001 0  1.6 -0.6000000000000001 0  1.8 -0.6000000000000001 0  2 -0.6000000000000001 0  -2 -0.3999999999999999 0  -1.8 -0.3999999999999999 0  -1.6 -0.3999999999999999 0  -1.4 -0.3999999999999999 0  -1.2 -0.3999999999999999 0  -1 -0.3999999999999999 0  -0.8 -0.3999999999999999 0  -0.6000000000000001 -0.3999999999999999 0  -0.3999999999999999 -0.3999999999999999 0  -0.2 -0.3999999999999999 0  0 -0.3999999999999999 0  0.2000000000000002 -0.3999999999999999 0  0.3999999999999999 -0.3999999999999999 0  0.6000000000000001 -0.3999999999999999 0  0.7999999999999998 -0.3999999999999999 0  1 -0.3999999999999999 0  1.2 -0.3999999999999999 0  1.4 -0.3999999999999999 0  1.6 -0.3999999999999999 0  1.8 -0.3999999999999999 0  2 -0.3999999999999999 0  -2 -0.2 0  -1.8 -0.2 0  -1.6 -0.2 0  -1.4 -0.2 0  -1.2 -0.2 0  -1 -0.2 0  -0.8 -0.2 0  -0.6000000000000001 -0.2 0  -0.3999999999999999 -0.2 0  -0.2 -0.2 0  0 -0.2 0  0.2000000000000002 -0.2 0  0.3999999999999999 -0.2 0  0.6000000000000001 -0.2 0  0.7999999999999998 -0.2 0  1 -0.2 0  1.2 -0.2 0  1.4 -0.2 0  1.6 -0.2 0  1.8 -0.2 0  2 -0.2 0  -2 0 0  -1.8 0 0  -1.6 0 0  -1.4 0 0  -1.2 0 0  -1 0 0  -0.8 0 0  -0.6000000000000001 0 0  -0.3999999999999999 0 0  -0.2 0 0  0 0 0  0.2000000000000002 0 0  0.3999999999999999 0 0  0.6000000000000001 0 0  0.7999999999999998 0 0  1 0 0  1.2 0 0  1.4 0 0  1.6 0 0  1.8 0 0  2 0 0  -2 0.2000000000000002 0  -1.8 0.2000000000000002 0  -1.6 0.2000000000000002 0  -1.4 0.2000000000000002 0  -1.2 0.2000000000000002 0  -1 0.2000000000000002 0  -0.8 0.2000000000000002 0  -0.6000000000000001 0.2000000000000002 0  -0.3999999999999999 0.2000000000000002 0  -0.2 0.2000000000000002 0  0 0.2000000000000002 0  0.2000000000000002 0.2000000000000002 0  0.3999999999999999 0.2000000000000002 0  0.6000000000000001 0.2000000000000002 0  0.7999999999999998 0.2000000000000002 0  1 0.2000000000000002 0  1.2 0.2000000000000002 0  1.4 0.2000000000000002 0  1.6 0.2000000000000002 0  1.8 0.2000000000000002 0  2 0.2000000000000002 0  -2 0.3999999999999999 0  -1.8 0.3999999999999999 0  -1.6 0.3999999999999999 0  -1.4 0.3999999999999999 0  -1.2 0.3999999999999999 0  -1 0.3999999999999999 0  -0.8 0.3999999999999999 0  -0.6000000000000001 0.3999999999999999 0  -0.3999999999999999 0.3999999999999999 0  -0.2 0.3999999999999999 0  0 0.3999999999999999 0  0.2000000000000002 0.3999999999999999 0  0.3999999999999999 0.3999999999999999 0  0.6000000000000001 0.3999999999999999 0  0.7999999999999998 0.3999999999999999 0  1 0.3999999999999999 0  1.2 0.3999999999999999 0  1.4 0.3999999999999999 0  1.6 0.3999999999999999 0  1.8 0.3999999999999999 0  2 0.3999999999999999 0  -2 0.6000000000000001 0  -1.8 0.6000000000000001 0  -1.6 0.6000000000000001 0  -1.4 0.6000000000000001 0  -1.2 0.6000000000000001 0  -1 0.6000000000000001 0  -0.8 0.6000000000000001 0  -0.6000000000000001 0.6000000000000001 0  -0.3999999999999999 0.6000000000000001 0  -0.2 0.6000000000000001 0  0 0.6000000000000001 0  0.2000000000000002 0.6000000000000001 0  0.3999999999999999 0.6000000000000001 0  0.6000000000000001 0.6000000000000001 0  0.7999999999999998 0.6000000000000001 0  1 0.6000000000000001 0  1.2 0.6000000000000001 0  1.4 0.6000000000000001 0  1.6 0.6000000000000001 0  1.8 0.6000000000000001 0  2 0.6000000000000001 0  -2 0.7999999999999998 0  -1.8 0.7999999999999998 0  -1.6 0.7999999999999998 0  -1.4 0.7999999999999998 0  -1.2 0.7999999999999998 0  -1 0.7999999999999998 0  -0.8 0.7999999999999998 0  -0.6000000000000001 0.7999999999999998 0  -0.3999999999999999 0.7999999999999998 0  -0.2 0.7999999999999998 0  0 0.7999999999999998 0  0.2000000000000002 0.7999999999999998 0  0.3999999999999999 0.7999999999999998 0  0.6000000000000001 0.7999999999999998 0  0.7999999999999998 0.7999999999999998 0  1 0.7999999999999998 0  1.2 0.7999999999999998 0  1.4 0.7999999999999998 0  1.6 0.7999999999999998 0  1.8 0.7999999999999998 0  2 0.7999999999999998 0  -2 1 0  -1.8 1 0  -1.6 1 0  -1.4 1 0  -1.2 1 0  -1 1 0  -0.8 1 0  -0.6000000000000001 1 0  -0.3999999999999999 1 0  -0.2 1 0  0 1 0  0.2000000000000002 1 0  0.3999999999999999 1 0  0.6000000000000001 1 0  0.7999999999999998 1 0  1 1 0  1.2 1 0  1.4 1 0  1.6 1 0  1.8 1 0  2 1 0  -2 1.2 0  -1.8 1.2 0  -1.6 1.2 0  -1.4 1.2 0  -1.2 1.2 0  -1 1.2 0  -0.8 1.2 0  -0.6000000000000001 1.2 0  -0.3999999999999999 1.2 0  -0.2 1.2 0  0 1.2 0  0.2000000000000002 1.2 0  0.3999999999999999 1.2 0  0.6000000000000001 1.2 0  0.7999999999999998 1.2 0  1 1.2 0  1.2 1.2 0  1.4 1.2 0  1.6 1.2 0  1.8 1.2 0  2 1.2 0  -2 1.4 0  -1.8 1.4 0  -1.6 1.4 0  -1.4 1.4 0  -1.2 1.4 0  -1 1.4 0  -0.8 1.4 0  -0.6000000000000001 1.4 0  -0.3999999999999999 1.4 0  -0.2 1.4 0  0 1.4 0  0.2000000000000002 1.4 0  0.3999999999999999 1.4 0  0.6000000000000001 1.4 0  0.7999999999999998 1.4 0  1 1.4 0  1.2 1.4 0  1.4 1.4 0  1.6 1.4 0  1.8 1.4 0  2 1.4 0  -2 1.6 0  -1.8 1.6 0  -1.6 1.6 0  -1.4 1.6 0  -1.2 1.6 0  -1 1.6 0  -0.8 1.6 0  -0.6000000000000001 1.6 0  -0.3999999999999999 1.6 0  -0.2 1.6 0  0 1.6 0  0.2000000000000002 1.6 0  0.3999999999999999 1.6 0  0.6000000000000001 1.6 0  0.7999999999999998 1.6 0  1 1.6 0  1.2 1.6 0  1.4 1.6 0  1.6 1.6 0  1.8 1.6 0  2 1.6 0  -2 1.8 0  -1.8 1.8 0  -1.6 1.8 0  -1.4 1.8 0  -1.2 1.8 0  -1 1.8 0  -0.8 1.8 0  -0.6000000000000001 1.8 0  -0.3999999999999999 1.8 0  -0.2 1.8 0  0 1.8 0  0.2000000000000002 1.8 0  0.3999999999999999 1.8 0  0.6000000000000001 1.8 0  0.7999999999999998 1.8 0  1 1.8 0  1.2 1.8 0  1.4 1.8 0  1.6 1.8 0  1.8 1.8 0  2 1.8 0  -2 2 0  -1.8 2 0  -1.6 2 0  -1.4 2 0  -1.2 2 0  -1 2 0  -0.8 2 0  -0.6000000000000001 2 0  -0.3999999999999999 2 0  -0.2 2 0  0 2 0  0.2000000000000002 2 0  0.3999999999999999 2 0  0.6000000000000001 2 0  0.7999999999999998 2 0  1 2 0  1.2 2 0  1.4 2 0  1.6 2 0  1.8 2 0  2 2 0  </DataArray>
</Points>
<Cells>
[...]
<PointData  Scalars="f_8"> 
<DataArray  type="Float64"  Name="f_8"  format="ascii">9.3128289387783600e-02  9.1147352897515022e-02  8.6363542269682320e-02  7.9213083006795901e-02  7.0335940951486611e-02  6.0471571945023790e-02  5.0353320591963978e-02  4.0619863048176878e-02  3.1756275754441947e-02  2.4069271277817685e-02  1.7693471323714769e-02  1.2620233638753293e-02  8.7383560226132403e-03  5.8766955347975148e-03  3.8413866062859303e-03  2.4437139683834703e-03  1.5177851090291824e-03  9.2936012339956374e-04  5.7837732189820463e-04  3.9801752181122636e-04  3.5287990983288363e-04  9.2427906377434768e-02  9.0865921550954992e-02  8.6370796601780847e-02  7.9403858888323686e-02  7.0621191826405028e-02  6.0778005318813492e-02  5.0625994345892295e-02  4.0824118490432826e-02  3.1877244265070576e-02  2.4108732508062114e-02  1.7664872915262902e-02  1.2543122696775686e-02  8.6333946693385906e-03  5.7620264785638083e-03  3.7306026580416038e-03  2.3452460600973521e-03  1.4352477292526636e-03  8.6228350239900698e-04  5.2275142531936231e-04  3.4608269411540030e-04  2.9152278987659881e-04  9.2385432655554101e-02  9.0853076919659922e-02  8.6410525690770526e-02  7.9491168458764652e-02  7.0736275001741122e-02  6.0896240839747054e-02  5.0725256933028803e-02  4.0889288843182277e-02  3.1901937978290343e-02  2.4094669333793558e-02  1.7619668587638936e-02  1.2477429115413401e-02  8.5582082436090924e-03  5.6867033209832161e-03  3.6617831892607755e-03  2.2866082983921030e-03  1.3878394064694400e-03  8.2513798463685988e-04  4.9354653617160449e-04  3.2172211450751521e-04  2.6869100522385238e-04  9.2423499881740312e-02  9.0894048708866443e-02  8.6457411128475575e-02  7.9542462760616550e-02  7.0786721413982942e-02  6.0938959883751267e-02  5.0754071932972926e-02  4.0900460919120737e-02  3.1894925685911062e-02  2.4071908296658864e-02  1.7585647721691994e-02  1.2437469562528863e-02  8.5173284929861044e-03  5.6488260991986537e-03  3.6293749428961586e-03  2.2607013131511044e-03  1.3683043740642152e-03  8.1105602629120456e-04  4.8355803292607737e-04  3.1428066115313219e-04  2.6220174036346204e-04  9.2449778769516031e-02  9.0920248318361305e-02  8.6482691069204171e-02  7.9565438989819867e-02  7.0805587725541672e-02  6.0951932965683894e-02  5.0759926896228255e-02  4.0898923884874747e-02  3.1886782609050916e-02  2.4058815822789716e-02  1.7569738271905715e-02  1.2420894855220140e-02  8.5018771065715811e-03  5.6356990550666614e-03  3.6191374624098766e-03  2.2533749247313768e-03  1.3635356389787004e-03  8.0829703959784478e-04  4.8221095047754189e-04  3.1378233066002749e-04  2.6204601132763066e-04  9.2459036493938898e-02  9.0929272459549348e-02  8.6490902582597673e-02  7.9572255038801193e-02  7.0810489130421206e-02  6.0954568127029485e-02  5.0760209939923903e-02  4.0897080554290012e-02  3.1883318036206913e-02  2.4054410456720680e-02  1.7565105528590388e-02  1.2416645100199809e-02  8.4984252201546918e-03  5.6332332110374207e-03  3.6176448382483030e-03  2.2527044463858730e-03  1.3634724895002070e-03  8.0862746465464790e-04  4.8276470523635890e-04  3.1444930007876626e-04  2.6277001844929630e-04  9.2460848503049489e-02  9.0930982286680673e-02  8.6492356522310868e-02  7.9573322922094195e-02  7.0811085342422350e-02  6.0954670801880724e-02  5.0759870738220171e-02  4.0896418428897428e-02  3.1882495709326157e-02  2.4053599244628281e-02  1.7564449017413813e-02  1.2416232593895951e-02  8.4982818771785155e-03  5.6333275152768017e-03  3.6179084214379518e-03  2.2530564332899003e-03  1.3638410025686553e-03  8.0896373346999134e-04  4.8304869322440255e-04  3.1468838370811339e-04  2.6299328336846318e-04  9.2460944049369914e-02  9.0931050179189399e-02  8.6492380060629176e-02  7.9573293033250753e-02  7.0811003533872055e-02  6.0954550330032949e-02  5.0759735040876185e-02  4.0896296528275658e-02  3.1882415440504859e-02  2.4053580239913434e-02  1.7564497746139583e-02  1.2416341131719943e-02  8.4984307114992219e-03  5.6334912284373003e-03  3.6180621952261161e-03  2.2531813221967219e-03  1.3639267087216826e-03  8.0900873602280006e-04  4.8305853153975700e-04  3.1467333202794763e-04  2.6296651628163756e-04  9.2460908632412936e-02  9.0931010706557486e-02  8.6492338047446618e-02  7.9573251191233693e-02  7.0810965620584088e-02  6.0954520644854918e-02  5.0759717578952167e-02  4.0896293945693850e-02  3.1882428129756682e-02  2.4053605871964381e-02  1.7564531534653181e-02  1.2416376828523758e-02  8.4984620534900319e-03  5.6335133651070528e-03  3.6180726289026248e-03  2.2531800872667433e-03  1.3639158064049773e-03  8.0899109811367908e-04  4.8303691477434270e-04  3.1464952165057497e-04  2.6294108404767533e-04  9.2460904115790651e-02  9.0931006310035797e-02  8.6492334303441137e-02  7.9573248653107873e-02  7.0810964749555616e-02  6.0954521679975997e-02  5.0759720420684891e-02  4.0896298094258786e-02  3.1882432718441801e-02  2.4053609815064554e-02  1.7564533770643109e-02  1.2416376595528291e-02  8.4984591082406750e-03  5.6335080656936543e-03  3.6180658460889716e-03  2.2531729699737076e-03  1.3639094759544754e-03  8.0898636161146347e-04  4.8303406781221740e-04  3.1464827030809936e-04  2.6294057993305907e-04  9.2460904976231648e-02  9.0931007322758689e-02  8.6492335448146315e-02  7.9573249886998640e-02  7.0810965999576786e-02  6.0954522840335916e-02  5.0759721360017496e-02  4.0896298675031750e-02  3.1882432827470129e-02  2.4053609398810134e-02  1.7564532864290675e-02  1.2416375333461129e-02  8.4984577076559244e-03  5.6335067843251187e-03  3.6180649257771627e-03  2.2531725848089243e-03  1.3639097027590950e-03  8.0898718123787730e-04  4.8303539205752624e-04  3.1464997758756479e-04  2.6294253894255958e-04  9.2460906164408510e-02  9.0931008359687676e-02  8.6492336251437679e-02  7.9573250408314478e-02  7.0810966221770882e-02  6.0954522775420100e-02  5.0759721047227806e-02  4.0896298177584264e-02  3.1882432226704428e-02  2.4053608785119859e-02  1.7564532325277247e-02  1.2416374940872865e-02  8.4984575056247687e-03  5.6335067818513666e-03  3.6180650960052126e-03  2.2531728722604569e-03  1.3639100376253046e-03  8.0898749774530173e-04  4.8303564655968555e-04  3.1465016182647033e-04  2.6294268479269852e-04  9.2460908846666148e-02  9.0931010614842378e-02  8.6492338371669600e-02  7.9573252557311111e-02  7.0810968412999900e-02  6.0954524897321928e-02  5.0759722919164280e-02  4.0896299616132586e-02  3.1882433102929889e-02  2.4053609058901953e-02  1.7564532050981123e-02  1.2416374247370365e-02  8.4984565603553400e-03  5.6335057514004241e-03  3.6180641141858446e-03  2.2531720221859479e-03  1.3639093489672377e-03  8.0898695628906251e-04  4.8303521120502242e-04  3.1464978400393259e-04  2.6294232588143762e-04  9.2460870363881564e-02  9.0930975571514555e-02  8.6492310039241904e-02  7.9573232921989256e-02  7.0810958183362069e-02  6.0954523635456566e-02  5.0759729262810104e-02  4.0896311569270156e-02  3.1882448371442267e-02  2.4053625394486442e-02  1.7564547551696712e-02  1.2416387562169690e-02  8.4984669646317890e-03  5.6335130947499481e-03  3.6180686754606803e-03  2.2531743265401306e-03  1.3639100009429713e-03  8.0898652524698917e-04  4.8303417939072040e-04  3.1464854294729834e-04  2.6294119097628382e-04  9.2460686193456890e-02  9.0930807793986448e-02  8.6492158056332008e-02  7.9573096200715954e-02  7.0810837614757385e-02  6.0954421831073385e-02  5.0759649786270442e-02  4.0896257496937705e-02  3.1882420832130345e-02  2.4053622703743869e-02  1.7564565255559033e-02  1.2416419307187039e-02  8.4985058118077130e-03  5.6335528071787778e-03  3.6181046219021756e-03  2.2532038572036978e-03  1.3639323511492540e-03  8.0900241158887427e-04  4.8304525766167247e-04  3.1465683336321558e-04  2.6294850102327722e-04  9.2461109079333692e-02  9.0931210431464543e-02  8.6492433882548764e-02  7.9573166130382164e-02  7.0810662715453235e-02  6.0954008793527040e-02  5.0759046801735368e-02  4.0895541055913288e-02  3.1881677195061429e-02  2.4052929518972581e-02  1.7563978243706375e-02  1.2415966614315070e-02  8.4981898139902309e-03  5.6333570299958707e-03  3.6180026235489021e-03  2.2531673204647835e-03  1.3639367046567703e-03  8.0902945246253506e-04  4.8308307890978559e-04  3.1469776763337848e-04  2.6298589761192346e-04  9.2467463843984660e-02  9.0937245333714986e-02  8.6497578042731685e-02  7.9576933662183894e-02  7.0812716719130794e-02  6.0954222500924631e-02  5.0757531041232977e-02  4.0892620472474481e-02  3.1877819400440641e-02  2.4048649111817227e-02  1.7559744084596474e-02  1.2412135452965965e-02  8.4949770646124204e-03  5.6308424987146733e-03  3.6161600922959094e-03  2.2519038619129017e-03  1.3631295151121819e-03  8.0855253800008072e-04  4.8282103793467236e-04  3.1454778612065163e-04  2.6285152120237372e-04  9.2493024805422819e-02  9.0962034375847212e-02  8.6520361991867051e-02  7.9596196264443031e-02  7.0826900535297041e-02  6.0962136081639862e-02  5.0758704178975003e-02  4.0887457714303382e-02  3.1867510128951879e-02  2.4034889132055894e-02  1.7544376839106316e-02  1.2396823597471856e-02  8.4809803397825623e-03  5.6189283074371153e-03  3.6066298252351715e-03  2.2446928057972626e-03  1.3579329239414258e-03  8.0493981384763930e-04  4.8031616206362944e-04  3.1267067327276629e-04  2.6112820728171426e-04  9.2541555719110366e-02  9.1012460692765793e-02  8.6574066918468792e-02  7.9650459952083114e-02  7.0876233629804539e-02  6.1000448989838051e-02  5.0781302416738498e-02  4.0892276633732162e-02  3.1855402165162673e-02  2.4009101794538398e-02  1.7509553441246405e-02  1.2357902819127025e-02  8.4422936004784430e-03  5.5836537945457287e-03  3.5766200934719454e-03  2.2205918655292720e-03  1.3394544283379423e-03  7.9118331659588969e-04  4.7003476435684462e-04  3.0445174922292081e-04  2.5349708048793098e-04  9.2522500296091992e-02  9.1024608158923784e-02  8.6635407893062968e-02  7.9753444891124112e-02  7.1000306337269004e-02  6.1121575993557227e-02  5.0878810762702481e-02  4.0952885255263034e-02  3.1874521045565839e-02  2.3989883751096439e-02  1.7460519371272569e-02  1.2290066328643426e-02  8.3665704380200719e-03  5.5090412890306285e-03  3.5092950141724943e-03  2.1638053556782204e-03  1.2939527407065787e-03  7.5585360232971542e-04  4.4253386517261324e-04  2.8168441711061171e-04  2.3194755407084030e-04  9.1834198988442542e-02  9.0748322939222054e-02  8.6646974184689876e-02  7.9951323930823923e-02  7.1296511541367041e-02  6.1441706001808157e-02  5.1165502312526631e-02  4.1168802319306662e-02  3.2002781981398179e-02  2.4031449885668615e-02  1.7429271201544562e-02  1.2206906419240689e-02  8.2539194842513701e-03  5.3867005647044988e-03  3.3920765144223801e-03  2.0608018551353676e-03  1.2089675441641922e-03  6.8836161454570400e-04  3.8854501181439794e-04  2.3392535698724042e-04  1.7875321220064814e-04  </DataArray> 
</PointData> 
</Piece>
</UnstructuredGrid>
</VTKFile>