<?xml version="1.0"?>
<VTKFile type="UnstructuredGrid"  version="0.1"  >
<UnstructuredGrid>
<Piece  NumberOfPoints="441" NumberOfCells="800">
<Points>
<DataArray  type="Float64"  NumberOfComponents="3"  format="ascii">-2 -2 0  -1.8 -2 0  -1.6 -2 0  -1.4 -2 0  -1.2 -2 0  -1 -2 0  -0.8 -2 0  -0.6000000000000001 -2 0  -0.3999999999999999 -2 0  -0.2 -2 0  0 -2 0  0.2000000000000002 -2 0  0.3999999999999999 -2 0  0.6000000000000001 -2 0  0.7999999999999998 -2 0  1 -2 0  1.2 -2 0  1.4 -2 0  1.6 -2 0  1.8 -2 0  2 -2 0  -2 -1.8 0  -1.8 -1.8 0  -1.6 -1.8 0  -1.4 -1.8 0  -1.2 -1.8 0  -1 -1.8 0  -0.8 -1.8 0  -0.6000000000000001 -1.8 0  -0.3999999999999999 -1.8 0  -0.2 -1.8 0  0 -1.8 0  0.2000000000000002 -1.8 0  0.3999999999999999 -1.8 0  0.6000000000000001 -1.8 0  0.7999999999999998 -1.8 0  1 -1.8 0  1.2 -1.8 0  1.4 -1.8 0  1.6 -1.8 0  1.8 -1.8 0  2 -1.8 0  -2 -1.6 0  -1.8 -1.6 0  -1.6 -1.6 0  -1.4 -1.6 0  -1.2 -1.6 0  -1 -1.6 0  -0.8 -1.6 0  -0.6000000000000001 -1.6 0  -0.3999999999999999 -1.6 0  -0.2 -1.6 0  0 -1.6 0  0.2000000000000002 -1.6 0  0.3999999999999999 -1.6 0  0.6000000000000001 -1.6 0  0.7999999999999998 -1.6 0  1 -1.6 0  1.2 -1.6 0  1.4 -1.6 0  1.6 -1.6 0  1.8 -1.6 0  2 -1.6 0  -2 -1.4 0  -1.8 -1.4 0  -1.6 -1.4 0  -1.4 -1.4 0  -1.2 -1.4 0  -1 -1.4 0  -0.8 -1.4 0  -0.6000000000000001 -1.4 0  -0.3999999999999999 -1.4 0  -0.2 -1.4 0  0 -1.4 0  0.2000000000000002 -1.4 0  0.3999999999999999 -1.4 0  0.6000000000000001 -1.4 0  0.7999999999999998 -1.4 0  1 -1.4 0  1.2 -1.4 0  1.4 -1.4 0  1.6 -1.4 0  1.8 -1.4 0  2 -1.4 0  -2 -1.2 0  -1.8 -1.2 0  -1.6 -1.2 0  -1.4 -1.2 0  -1.2 -1.2 0  -1 -1.2 0  -0.8 -1.2 0  -0.6000000000000001 -1.2 0  -0.3999999999999999 -1.2 0  -0.2 -1.2 0  0 -1.2 0  0.2000000000000002 -1.2 0  0.3999999999999999 -1.2 0  0.6000000000000001 -1.2 0  0.7999999999999998 -1.2 0  1 -1.2 0  1.2 -1.2 0  1.4 -1.2 0  1.6 -1.2 0  1.8 -1.2 0  2 -1.2 0  -2 -1 0  -1.8 -1 0  -1.6 -1 0  -1.4 -1 0  -1.2 -1 0  -1 -1 0  -0.8 -1 0  -0.6000000000000001 -1 0  -0.3999999999999999 -1 0  -0.2 -1 0  0 -1 0  0.2000000000000002 -1 0  0.3999999999999999 -1 0  0.6000000000000001 -1 0  0.7999999999999998 -1 0  1 -1 0  1.2 -1 0  1.4 -1 0  1.6 -1 0  1.8 -1 0  2 -1 0  -2 -0.8 0  -1.8 -0.8 0  -1.6 -0.8 0  -1.4 -0.8 0  -1.2 -0.8 0  -1 -0.8 0  -0.8 -0.8 0  -0.6000000000000001 -0.8 0  -0.3999999999999999 -0.8 0  -0.2 -0.8 0  0 -0.8 0  0.2000000000000002 -0.8 0  0.3999999999999999 -0.8 0  0.6000000000000001 -0.8 0  0.7999999999999998 -0.8 0  1 -0.8 0  1.2 -0.8 0  1.4 -0.8 0  1.6 -0.8 0  1.8 -0.8 0  2 -0.8 0  -2 -0.6000000000000001 0  -1.8 -0.6000000000000001 0  -1.6 -0.6000000000000001 0  -1.4 -0.6000000000000001 0  -1.2 -0.6000000000000001 0  -1 -0.6000000000000001 0  -0.8 -0.6000000000000001 0  -0.6000000000000001 -0.6000000000000001 0  -0.3999999999999999 -0.6000000000000001 0  -0.2 -0.6000000000000001 0  0 -0.6000000000000001 0  0.2000000000000002 -0.6000000000000001 0  0.3999999999999999 -0.6000000000000001 0  0.6000000000000001 -0.6000000000000001 0  0.7999999999999998 -0.6000000000000001 0  1 -0.6000000000000001 0  1.2 -0.6000000000000001 0  1.4 -0.6000000000000001 0  1.6 -0.6000000000000001 0  1.8 -0.6000000000000001 0  2 -0.6000000000000001 0  -2 -0.3999999999999999 0  -1.8 -0.3999999999999999 0  -1.6 -0.3999999999999999 0  -1.4 -0.3999999999999999 0  -1.2 -0.3999999999999999 0  -1 -0.3999999999999999 0  -0.8 -0.3999999999999999 0  -0.6000000000000001 -0.3999999999999999 0  -0.3999999999999999 -0.3999999999999999 0  -0.2 -0.3999999999999999 0  0 -0.3999999999999999 0  0.2000000000000002 -0.3999999999999999 0  0.3999999999999999 -0.3999999999999999 0  0.6000000000000001 -0.3999999999999999 0  0.7999999999999998 -0.3999999999999999 0  1 -0.3999999999999999 0  1.2 -0.3999999999999999 0  1.4 -0.3999999999999999 0  1.6 -0.3999999999999999 0  1.8 -0.3999999999999999 0  2 -0.3999999999999999 0  -2 -0.2 0  -1.8 -0.2 0  -1.6 -0.2 0  -1.4 -0.2 0  -1.2 -0.2 0  -1 -0.2 0  -0.8 -0.2 0  -0.6000000000000001 -0.2 0  -0.3999999999999999 -0.2 0  -0.2 -0.2 0  0 -0.2 0  0.2000000000000002 -0.2 0  0.3999999999999999 -0.2 0  0.6000000000000001 -0.2 0  0.7999999999999998 -0.2 0  1 -0.2 0  1.2 -0.2 0  1.4 -0.2 0  1.6 -0.2 0  1.8 -0.2 0  2 -0.2 0  -2 0 0  -1.8 0 0  -1.6 0 0  -1.4 0 0  -1.2 0 0  -1 0 0  -0.8 0 0  -0.6000000000000001 0 0  -0.3999999999999999 0 0  -0.2 0 0  0 0 0  0.2000000000000002 0 0  0.3999999999999999 0 0  0.6000000000000001 0 0  0.7999999999999998 0 0  1 0 0  1.2 0 0  1.4 0 0  1.6 0 0  1.8 0 0  2 0 0  -2 0.2000000000000002 0  -1.8 0.2000000000000002 0  -1.6 0.2000000000000002 0  -1.4 0.2000000000000002 0  -1.2 0.2000000000000002 0  -1 0.2000000000000002 0  -0.8 0.2000000000000002 0  -0.6000000000000001 0.2000000000000002 0  -0.3999999999999999 0.2000000000000002 0  -0.2 0.2000000000000002 0  0 0.2000000000000002 0  0.2000000000000002 0.2000000000000002 0  0.3999999999999999 0.2000000000000002 0  0.6000000000000001 0.2000000000000002 0  0.7999999999999998 0.2000000000000002 0  1 0.2000000000000002 0  1.2 0.2000000000000002 0  1.4 0.2000000000000002 0  1.6 0.2000000000000002 0  1.8 0.2000000000000002 0  2 0.2000000000000002 0  -2 0.3999999999999999 0  -1.8 0.3999999999999999 0  -1.6 0.3999999999999999 0  -1.4 0.3999999999999999 0  -1.2 0.3999999999999999 0  -1 0.3999999999999999 0  -0.8 0.3999999999999999 0  -0.6000000000000001 0.3999999999999999 0  -0.3999999999999999 0.3999999999999999 0  -0.2 0.3999999999999999 0  0 0.3999999999999999 0  0.2000000000000002 0.3999999999999999 0  0.3999999999999999 0.3999999999999999 0  0.6000000000000001 0.3999999999999999 0  0.7999999999999998 0.3999999999999999 0  1 0.3999999999999999 0  1.2 0.3999999999999999 0  1.4 0.3999999999999999 0  1.6 0.3999999999999999 0  1.8 0.3999999999999999 0  2 0.3999999999999999 0  -2 0.6000000000000001 0  -1.8 0.6000000000000001 0  -1.6 0.6000000000000001 0  -1.4 0.6000000000000001 0  -1.2 0.6000000000000001 0  -1 0.6000000000000001 0  -0.8 0.6000000000000001 0  -0.6000000000000001 0.6000000000000001 0  -0.3999999999999999 0.6000000000000001 0  -0.2 0.6000000000000001 0  0 0.6000000000000001 0  0.2000000000000002 0.6000000000000001 0  0.3999999999999999 0.6000000000000001 0  0.6000000000000001 0.6000000000000001 0  0.7999999999999998 0.6000000000000001 0  1 0.6000000000000001 0  1.2 0.6000000000000001 0  1.4 0.6000000000000001 0  1.6 0.6000000000000001 0  1.8 0.6000000000000001 0  2 0.6000000000000001 0  -2 0.7999999999999998 0  -1.8 0.7999999999999998 0  -1.6 0.7999999999999998 0  -1.4 0.7999999999999998 0  -1.2 0.7999999999999998 0  -1 0.7999999999999998 0  -0.8 0.7999999999999998 0  -0.6000000000000001 0.7999999999999998 0  -0.3999999999999999 0.7999999999999998 0  -0.2 0.7999999999999998 0  0 0.7999999999999998 0  0.2000000000000002 0.7999999999999998 0  0.3999999999999999 0.7999999999999998 0  0.6000000000000001 0.7999999999999998 0  0.7999999999999998 0.7999999999999998 0  1 0.7999999999999998 0  1.2 0.7999999999999998 0  1.4 0.7999999999999998 0  1.6 0.7999999999999998 0  1.8 0.7999999999999998 0  2 0.7999999999999998 0  -2 1 0  -1.8 1 0  -1.6 1 0  -1.4 1 0  -1.2 1 0  -1 1 0  -0.8 1 0  -0.6000000000000001 1 0  -0.3999999999999999 1 0  -0.2 1 0  0 1 0  0.2000000000000002 1 0  0.3999999999999999 1 0  0.6000000000000001 1 0  0.7999999999999998 1 0  1 1 0  1.2 1 0  1.4 1 0  1.6 1 0  1.8 1 0  2 1 0  -2 1.2 0  -1.8 1.2 0  -1.6 1.2 0  -1.4 1.2 0  -1.2 1.2 0  -1 1.2 0  -0.8 1.2 0  -0.6000000000000001 1.2 0  -0.3999999999999999 1.2 0  -0.2 1.2 0  0 1.2 0  0.2000000000000002 1.2 0  0.3999999999999999 1.2 0  0.6000000000000001 1.2 0  0.7999999999999998 1.2 0  1 1.2 0  1.2 1.2 0  1.4 1.2 0  1.6 1.2 0  1.8 1.2 0  2 1.2 0  -2 1.4 0  -1.8 1.4 0  -1.6 1.4 0  -1.4 1.4 0  -1.2 1.4 0  -1 1.4 0  -0.8 1.4 0  -0.6000000000000001 1.4 0  -0.3999999999999999 1.4 0  -0.2 1.4 0  0 1.4 0  0.2000000000000002 1.4 0  0.3999999999999999 1.4 0  0.6000000000000001 1.4 0  0.7999999999999998 1.4 0  1 1.4 0  1.2 1.4 0  1.4 1.4 0  1.6 1.4 0  1.8 1.4 0  2 1.4 0  -2 1.6 0  -1.8 1.6 0  -1.6 1.6 0  -1.4 1.6 0  -1.2 1.6 0  -1 1.6 0  -0.8 1.6 0  -0.6000000000000001 1.6 0  -0.3999999999999999 1.6 0  -0.2 1.6 0  0 1.6 0  0.2000000000000002 1.6 0  0.3999999999999999 1.6 0  0.6000000000000001 1.6 0  0.7999999999999998 1.6 0  1 1.6 0  1.2 1.6 0  1.4 1.6 0  1.6 1.6 0  1.8 1.6 0  2 1.6 0  -2 1.8 0  -1.8 1.8 0  -1.6 1.8 0  -1.4 1.8 0  -1.2 1.8 0  -1 1.8 0  -0.8 1.8 0  -0.6000000000000001 1.8 0  -0.3999999999999999 1.8 0  -0.2 1.8 0  0 1.8 0  0.2000000000000002 1.8 0  0.3999999999999999 1.8 0  0.6000000000000001 1.8 0  0.7999999999999998 1.8 0  1 1.8 0  1.2 1.8 0  1.4 1.8 0  1.6 1.8 0  1.8 1.8 0  2 1.8 0  -2 2 0  -1.8 2 0  -1.6 2 0  -1.4 2 0  -1.2 2 0  -1 2 0  -0.8 2 0  -0.6000000000000001 2 0  -0.3999999999999999 2 0  -0.2 2 0  0 2 0  0.2000000000000002 2 0  0.3999999999999999 2 0  0.6000000000000001 2 0  0.7999999999999998 2 0  1 2 0  1.2 2 0  1.4 2 0  1.6 2 0  1.8 2 0  2 2 0  </DataArray>
</Points>
<Cells>
[...]
<PointData  Scalars="f_8"> 
<DataArray  type="Float64"  Name="f_8"  format="ascii">6.0704289887511921e-03  0.0000000000000000e+00  0.0000000000000000e+00  0.0000000000000000e+00  0.0000000000000000e+00  0.0000000000000000e+00  0.0000000000000000e+00  0.0000000000000000e+00  0.0000000000000000e+00  0.0000000000000000e+00  0.0000000000000000e+00  0.0000000000000000e+00  0.0000000000000000e+00  0.0000000000000000e+00  0.0000000000000000e+00  0.0000000000000000e+00  0.0000000000000000e+00  0.0000000000000000e+00  0.0000000000000000e+00  0.0000000000000000e+00  0.0000000000000000e+00  6.4536081351878563e-02  6.4028913768482423e-02  6.3190655871513249e-02  6.2002532138573464e-02  6.0454748246026320e-02  5.8548227540944742e-02  5.6291591096764994e-02  5.3699098432146736e-02  5.0789167178800471e-02  4.7583251814699412e-02  4.4104957625173219e-02  4.0379322694978653e-02  3.6432233541358064e-02  3.2289958258573725e-02  2.7978790389734689e-02  2.3524800680943671e-02  1.8953694694370200e-02  1.4290773569368625e-02  9.5609942947748536e-03  4.7891258699537028e-03  0.0000000000000000e+00  1.2405452496849124e-01  1.2357899788779013e-01  1.2228150979240089e-01  1.2018580431027615e-01  1.1731697099743807e-01  1.1370380355778170e-01  1.0937970765789101e-01  1.0438275643415826e-01  9.8755255726600516e-02  9.2543042240534362e-02  8.5794658913158350e-02  7.8560505609117662e-02  7.0892034656957398e-02  6.2841041214040674e-02  5.4459083424874835e-02  4.5797054435815110e-02  3.6904916410507381e-02  2.7831595288992629e-02  1.8625023989717351e-02  9.3323109487938299e-03  0.0000000000000000e+00  1.7739758480535833e-01  1.7677287444400799e-01  1.7498306178603815e-01  1.7204771645761957e-01  1.6799684315257421e-01  1.6286991020506039e-01  1.5671489045465770e-01  1.4958720392227767e-01  1.4154854754687846e-01  1.3266564460714750e-01  1.2300896768467845e-01  1.1265149567745472e-01  1.0166756347564784e-01  9.0131855698919655e-02  7.8118585230530765e-02  6.5700884396741530e-02  5.2950422481347931e-02  3.9937248674059407e-02  2.6729845323819609e-02  1.3395363285124272e-02  0.0000000000000000e+00  2.2237936982513867e-01  2.2162246812969721e-01  2.1940768578230693e-01  2.1575711562724159e-01  2.1070632659198685e-01  2.0430335870010502e-01  1.9660746948960375e-01  1.8768768144477582e-01  1.7762118723527484e-01  1.6649167796022166e-01  1.5438766497982509e-01  1.4140086676387681e-01  1.2762472826548088e-01  1.1315313203265018e-01  9.8079348311040607e-02  8.2495256653393204e-02  6.6490855018391526e-02  5.0154055043396512e-02  3.3570745144663232e-02  1.6825087328651029e-02  0.0000000000000000e+00  2.5818446126397276e-01  2.5732263282391654e-01  2.5476883424795754e-01  2.5054801019348488e-01  2.4470072246755506e-01  2.3728207994004524e-01  2.2836033388109564e-01  2.1801520801628704e-01  2.0633604243218584e-01  1.9341983708413626e-01  1.7936928329631255e-01  1.6429086982937682e-01  1.4829314372831215e-01  1.3148519551681959e-01  1.1397542394633131e-01  9.5870618249602454e-02  7.7275376676127758e-02  5.8291860088604062e-02  3.9019859702695933e-02  1.9557139755294880e-02  0.0000000000000000e+00  2.8505350328282070e-01  2.8411249533130667e-01  2.8130370271875388e-01  2.7665432618932584e-01  2.7020878972604584e-01  2.6202758737478959e-01  2.5218575541771554e-01  2.4077104435271857e-01  2.2788187816987601e-01  2.1362519672641048e-01  1.9811428021406857e-01  1.8146665263371795e-01  1.6380215396728329e-01  1.4524125877854008e-01  1.2590370295928072e-01  1.0590746116923212e-01  8.5368096271619912e-02  6.4398479924513488e-02  4.3108861674908600e-02  2.1607243614667603e-02  0.0000000000000000e+00  3.0395302513464711e-01  3.0295497831574619e-01  2.9996552018093170e-01  2.9501347379599790e-01  2.8814601653712385e-01  2.7942746182769729e-01  2.6893764078514504e-01  2.5676996204387242e-01  2.4302924240341958e-01  2.2782941022200703e-01  2.1129118717523979e-01  1.9353985197444334e-01  1.7470318204954083e-01  1.5490965651235666e-01  1.3428698666902064e-01  1.1296101991891550e-01  9.1055040213157662e-02  6.8689464610196427e-02  4.5981912163679375e-02  2.3047599683171258e-02  0.0000000000000000e+00  3.1617196328360297e-01  3.1513518542844204e-01  3.1202713818987737e-01  3.0687772428087390e-01  2.9973593057960601e-01  2.9066856674134572e-01  2.7975858756719946e-01  2.6710308003745015e-01  2.5281101098682895e-01  2.3700084117538589e-01  2.1979811549035669e-01  2.0133313702849504e-01  1.8173882501570060e-01  1.6114884340307145e-01  1.3969606930695391e-01  1.1751144924920570e-01  9.4723267600491920e-02  7.1456827047595373e-02  4.7834516652414061e-02  2.3976220472696649e-02  0.0000000000000000e+00  3.2293450646415955e-01  3.2187427163920046e-01  3.1869862934094628e-01  3.1343811089556139e-01  3.0614273460097885e-01  2.9688072046659147e-01  2.8573677976260725e-01  2.7281006176299771e-01  2.5821185549527353e-01  2.4206315435005230e-01  2.2449219553383654e-01  2.0563208438610076e-01  1.8561860568569194e-01  1.6458831072960003e-01  1.4267695096421101e-01  1.2001830731904620e-01  9.6743440357941565e-02  7.2980361263818155e-02  4.8854098896719267e-02  2.4487115066866339e-02  0.0000000000000000e+00  3.2509731312751677e-01  3.2402734923900595e-01  3.2082790915074855e-01  3.1552975573413244e-01  3.0818326792300266e-01  2.9885714829899751e-01  2.8763670245650702e-01  2.7462177295704637e-01  2.5992442624266060e-01  2.4366650101941578e-01  2.2597713081882390e-01  2.0699035150930820e-01  1.8684289661865236e-01  1.6567226993039555e-01  1.4361516672037108e-01  1.2080629324324127e-01  9.7377609892378758e-02  7.3457998189519952e-02  4.9173326808751389e-02  2.4646868568529053e-02  0.0000000000000000e+00  3.2296299132111467e-01  3.2189739168618775e-01  3.1871629598837969e-01  3.1345030149338116e-01  3.0614949705451883e-01  2.9688217968015479e-01  2.8573314523176491e-01  2.7280163548091430e-01  2.5819903924561288e-01  2.4204645543548753e-01  2.2447223003651209e-01  2.0560957717157502e-01  1.8559438653759500e-01  1.6456330622731011e-01  1.4265217197601016e-01  1.1999483226192503e-01  9.6722394654656318e-02  7.2962893689858116e-02  4.8841355737179078e-02  2.4480213180267073e-02  0.0000000000000000e+00  3.1621774440646477e-01  3.1517300130587000e-01  3.1205680788991086e-01  3.0689914069065471e-01  2.9974907291483965e-01  2.9067351781610384e-01  2.7975555420701514e-01  2.6709241467707218e-01  2.5279323229673861e-01  2.3697665152079242e-01  2.1976841314525505e-01  2.0129902133781169e-01  1.8170159310349826e-01  1.6110997753888362e-01  1.3965721463345668e-01  1.1747438220553302e-01  9.4689856006587914e-02  7.1428983405410304e-02  4.7814146730431106e-02  2.3965169636033776e-02  0.0000000000000000e+00  3.0399385849974986e-01  3.0299060093133107e-01  2.9999564170364906e-01  2.9503777523980246e-01  2.8816417770818320e-01  2.7943919833462649e-01  2.6894274754920838e-01  2.5676835967405409e-01  2.4302102249950575e-01  2.2781487564190006e-01  2.1127088355075957e-01  1.9351458726694351e-01  1.7467403167198653e-01  1.5487795246404204e-01  1.3425429017770288e-01  1.1292907819918349e-01  9.1025729060378188e-02  6.8664719585662212e-02  4.5963652020000259e-02  2.3037646367044372e-02  0.0000000000000000e+00  2.8505761876857566e-01  2.8412151623257803e-01  2.8131717142188306e-01  2.7667150836794258e-01  2.7022872866924119e-01  2.6204917448929055e-01  2.5220781159435440e-01  2.4079240615036432e-01  2.2790148243802091e-01  2.1364215736989167e-01  1.9812795128902272e-01  1.8147667282439181e-01  1.6380846868328031e-01  1.4524411756904074e-01  1.2590363158622719e-01  1.0590520942299390e-01  8.5364564347423427e-02  6.4394627797416296e-02  4.3105607306930915e-02  2.1605356898268972e-02  0.0000000000000000e+00  2.5811534391685148e-01  2.5727662433031190e-01  2.5474514638260654e-01  2.5054518536212511e-01  2.4471673446609116e-01  2.3731445720603625e-01  2.2840629668309886e-01  2.1807181042601378e-01  2.0640030987626967e-01  1.9348889070983058e-01  1.7944044327009792e-01  1.6436173099393106e-01  1.4836161873949261e-01  1.3154952261552677e-01  1.1403413881056472e-01  9.5922491812155411e-02  7.7319323251185026e-02  5.8326822475181700e-02  3.9044679962218228e-02  1.9570425930563892e-02  0.0000000000000000e+00  2.2220522887683092e-01  2.2149640425786044e-01  2.1932816999881913e-01  2.1572147736169547e-01  2.1071093412182285e-01  2.0434382168230977e-01  1.9667885022418352e-01  1.8778470276018083e-01  1.7773842624845132e-01  1.6662373618530357e-01  1.5452930648840460e-01  1.4154711754712826e-01  1.2777093176636992e-01  1.1329495806841942e-01  9.8212755271453664e-02  8.2616409849109340e-02  6.6596007222097561e-02  5.0239398424980375e-02  3.3632246720704501e-02  1.6858322453087646e-02  0.0000000000000000e+00  1.7710582868511685e-01  1.7655711041307615e-01  1.7484005736267766e-01  1.7197271432878269e-01  1.6798389106416639e-01  1.6291218206413438e-01  1.5680497783490130e-01  1.4971737197166812e-01  1.4171095332425596e-01  1.3285251572396767e-01  1.2321273796582254e-01  1.1286489378955686e-01  1.0188365063946052e-01  9.0344009821920007e-02  7.8320430997367935e-02  6.5886171895718493e-02  5.3112860664798492e-02  4.0070304189742112e-02  2.6826521838807627e-02  1.3447981097475931e-02  0.0000000000000000e+00  1.2367109074390920e-01  1.2329623311306882e-01  1.2209226095333803e-01  1.2008137443923984e-01  1.1728797177552054e-01  1.1374061264456496e-01  1.0947272119935443e-01  1.0452254069076709e-01  9.8932647611913199e-02  9.2749218707396927e-02  8.6021179195435213e-02  7.8799322448812686e-02  7.1135467482183509e-02  6.3081703877748627e-02  5.4689760486287875e-02  4.6010522489935660e-02  3.7093710438411455e-02  2.7987724572103544e-02  1.8739648459389975e-02  9.3953983780027811e-03  0.0000000000000000e+00  6.4153071224937824e-02  6.3760897340876130e-02  6.3019455107482969e-02  6.1910107584427311e-02  6.0427210349589817e-02  5.8574362201898336e-02  5.6361943207224076e-02  5.3805407705004603e-02  5.0924024628495865e-02  4.7739890640960965e-02  4.4277120376293395e-02  4.0561164248936236e-02  3.6618230652844821e-02  3.2474803484137012e-02  2.8157252343941012e-02  2.3691534271345380e-02  1.9102984117225261e-02  1.4416186718589281e-02  9.6549184090036922e-03  4.8421382178442038e-03  0.0000000000000000e+00  5.9032602790591755e-03  0.0000000000000000e+00  0.0000000000000000e+00  0.0000000000000000e+00  0.0000000000000000e+00  0.0000000000000000e+00  0.0000000000000000e+00  0.0000000000000000e+00  0.0000000000000000e+00  0.0000000000000000e+00  0.0000000000000000e+00  0.0000000000000000e+00  0.0000000000000000e+00  0.0000000000000000e+00  0.0000000000000000e+00  0.0000000000000000e+00  0.0000000000000000e+00  0.0000000000000000e+00  0.0000000000000000e+00  0.0000000000000000e+00  0.0000000000000000e+00  </DataArray> 
</PointData> 
</Piece>
</UnstructuredGrid>
</VTKFile>