<?xml version="1.0"?>
<VTKFile type="UnstructuredGrid"  version="0.1"  >
<UnstructuredGrid>
<Piece  NumberOfPoints="441" NumberOfCells="800">
<Points>
<DataArray  type="Float64"  NumberOfComponents="3"  format="ascii">-2 -2 0  -1.8 -2 0  -1.6 -2 0  -1.4 -2 0  -1.2 -2 0  -1 -2 0  -0.8 -2 0  -0.6000000000000001 -2 0  -0.3999999999999999 -2 0  -0.2 -2 0  0 -2 0  0.2000000000000002 -2 0  0.3999999999999999 -2 0  0.6000000000000001 -2 0  0.7999999999999998 -2 0  1 -2 0  1.2 -2 0  1.4 -2 0  1.6 -2 0  1.8 -2 0  2 -2 0  -2 -1.8 0  -1.8 -1.8 0  -1.6 -1.8 0  -1.4 -1.8 0  -1.2 -1.8 0  -1 -1.8 0  -0.8 -1.8 0  -0.6000000000000001 -1.8 0  -0.3999999999999999 -1.8 0  -0.2 -1.8 0  0 -1.8 0  0.2000000000000002 -1.8 0  0.3999999999999999 -1.8 0  0.6000000000000001 -1.8 0  0.7999999999999998 -1.8 0  1 -1.8 0  1.2 -1.8 0  1.4 -1.8 0  1.6 -1.8 0  1.8 -1.8 0  2 -1.8 0  -2 -1.6 0  -1.8 -1.6 0  -1.6 -1.6 0  -1.4 -1.6 0  -1.2 -1.6 0  -1 -1.6 0  -0.8 -1.6 0  -0.6000000000000001 -1.6 0  -0.3999999999999999 -1.6 0  -0.2 -1.6 0  0 -1.6 0  0.2000000000000002 -1.6 0  0.3999999999999999 -1.6 0  0.6000000000000001 -1.6 0  0.7999999999999998 -1.6 0  1 -1.6 0  1.2 -1.6 0  1.4 -1.6 0  1.6 -1.6 0  1.8 -1.6 0  2 -1.6 0  -2 -1.4 0  -1.8 -1.4 0  -1.6 -1.4 0  -1.4 -1.4 0  -1.2 -1.4 0  -1 -1.4 0  -0.8 -1.4 0  -0.6000000000000001 -1.4 0  -0.3999999999999999 -1.4 0  -0.2 -1.4 0  0 -1.4 0  0.2000000000000002 -1.4 0  0.3999999999999999 -1.4 0  0.6000000000000001 -1.4 0  0.7999999999999998 -1.4 0  1 -1.4 0  1.2 -1.4 0  1.4 -1.4 0  1.6 -1.4 0  1.8 -1.4 0  2 -1.4 0  -2 -1.2 0  -1.8 -1.2 0  -1.6 -1.2 0  -1.4 -1.2 0  -1.2 -1.2 0  -1 -1.2 0  -0.8 -1.2 0  -0.6000000000000001 -1.2 0  -0.3999999999999999 -1.2 0  -0.2 -1.2 0  0 -1.2 0  0.2000000000000002 -1.2 0  0.3999999999999999 -1.2 0  0.6000000000000001 -1.2 0  0.7999999999999998 -1.2 0  1 -1.2 0  1.2 -1.2 0  1.4 -1.2 0  1.6 -1.2 0  1.8 -1.2 0  2 -1.2 0  -2 -1 0  -1.8 -1 0  -1.6 -1 0  -1.4 -1 0  -1.2 -1 0  -1 -1 0  -0.8 -1 0  -0.6000000000000001 -1 0  -0.3999999999999999 -1 0  -0.2 -1 0  0 -1 0  0.2000000000000002 -1 0  0.3999999999999999 -1 0  0.6000000000000001 -1 0  0.7999999999999998 -1 0  1 -1 0  1.2 -1 0  1.4 -1 0  1.6 -1 0  1.8 -1 0  2 -1 0  -2 -0.8 0  -1.8 -0.8 0  -1.6 -0.8 0  -1.4 -0.8 0  -1.2 -0.8 0  -1 -0.8 0  -0.8 -0.8 0  -0.6000000000000001 -0.8 0  -0.3999999999999999 -0.8 0  -0.2 -0.8 0  0 -0.8 0  0.2000000000000002 -0.8 0  0.3999999999999999 -0.8 0  0.6000000000000001 -0.8 0  0.7999999999999998 -0.8 0  1 -0.8 0  1.2 -0.8 0  1.4 -0.8 0  1.6 -0.8 0  1.8 -0.8 0  2 -0.8 0  -2 -0.6000000000000001 0  -1.8 -0.6000000000000001 0  -1.6 -0.6000000000000001 0  -1.4 -0.6000000000000001 0  -1.2 -0.6000000000000001 0  -1 -0.6000000000000001 0  -0.8 -0.6000000000000001 0  -0.6000000000000001 -0.6000000000000001 0  -0.3999999999999999 -0.6000000000000001 0  -0.2 -0.6000000000000001 0  0 -0.6000000000000001 0  0.2000000000000002 -0.6000000000000001 0  0.3999999999999999 -0.6000000000000001 0  0.6000000000000001 -0.6000000000000001 0  0.7999999999999998 -0.6000000000000001 0  1 -0.6000000000000001 0  1.2 -0.6000000000000001 0  1.4 -0.6000000000000001 0  1.6 -0.6000000000000001 0  1.8 -0.6000000000000001 0  2 -0.6000000000000001 0  -2 -0.3999999999999999 0  -1.8 -0.3999999999999999 0  -1.6 -0.3999999999999999 0  -1.4 -0.3999999999999999 0  -1.2 -0.3999999999999999 0  -1 -0.3999999999999999 0  -0.8 -0.3999999999999999 0  -0.6000000000000001 -0.3999999999999999 0  -0.3999999999999999 -0.3999999999999999 0  -0.2 -0.3999999999999999 0  0 -0.3999999999999999 0  0.2000000000000002 -0.3999999999999999 0  0.3999999999999999 -0.3999999999999999 0  0.6000000000000001 -0.3999999999999999 0  0.7999999999999998 -0.3999999999999999 0  1 -0.3999999999999999 0  1.2 -0.3999999999999999 0  1.4 -0.3999999999999999 0  1.6 -0.3999999999999999 0  1.8 -0.3999999999999999 0  2 -0.3999999999999999 0  -2 -0.2 0  -1.8 -0.2 0  -1.6 -0.2 0  -1.4 -0.2 0  -1.2 -0.2 0  -1 -0.2 0  -0.8 -0.2 0  -0.6000000000000001 -0.2 0  -0.3999999999999999 -0.2 0  -0.2 -0.2 0  0 -0.2 0  0.2000000000000002 -0.2 0  0.3999999999999999 -0.2 0  0.6000000000000001 -0.2 0  0.7999999999999998 -0.2 0  1 -0.2 0  1.2 -0.2 0  1.4 -0.2 0  1.6 -0.2 0  1.8 -0.2 0  2 -0.2 0  -2 0 0  -1.8 0 0  -1.6 0 0  -1.4 0 0  -1.2 0 0  -1 0 0  -0.8 0 0  -0.6000000000000001 0 0  -0.3999999999999999 0 0  -0.2 0 0  0 0 0  0.2000000000000002 0 0  0.3999999999999999 0 0  0.6000000000000001 0 0  0.7999999999999998 0 0  1 0 0  1.2 0 0  1.4 0 0  1.6 0 0  1.8 0 0  2 0 0  -2 0.2000000000000002 0  -1.8 0.2000000000000002 0  -1.6 0.2000000000000002 0  -1.4 0.2000000000000002 0  -1.2 0.2000000000000002 0  -1 0.2000000000000002 0  -0.8 0.2000000000000002 0  -0.6000000000000001 0.2000000000000002 0  -0.3999999999999999 0.2000000000000002 0  -0.2 0.2000000000000002 0  0 0.2000000000000002 0  0.2000000000000002 0.2000000000000002 0  0.3999999999999999 0.2000000000000002 0  0.6000000000000001 0.2000000000000002 0  0.7999999999999998 0.2000000000000002 0  1 0.2000000000000002 0  1.2 0.2000000000000002 0  1.4 0.2000000000000002 0  1.6 0.2000000000000002 0  1.8 0.2000000000000002 0  2 0.2000000000000002 0  -2 0.3999999999999999 0  -1.8 0.3999999999999999 0  -1.6 0.3999999999999999 0  -1.4 0.3999999999999999 0  -1.2 0.3999999999999999 0  -1 0.3999999999999999 0  -0.8 0.3999999999999999 0  -0.6000000000000001 0.3999999999999999 0  -0.3999999999999999 0.3999999999999999 0  -0.2 0.3999999999999999 0  0 0.3999999999999999 0  0.2000000000000002 0.3999999999999999 0  0.3999999999999999 0.3999999999999999 0  0.6000000000000001 0.3999999999999999 0  0.7999999999999998 0.3999999999999999 0  1 0.3999999999999999 0  1.2 0.3999999999999999 0  1.4 0.3999999999999999 0  1.6 0.3999999999999999 0  1.8 0.3999999999999999 0  2 0.3999999999999999 0  -2 0.6000000000000001 0  -1.8 0.6000000000000001 0  -1.6 0.6000000000000001 0  -1.4 0.6000000000000001 0  -1.2 0.6000000000000001 0  -1 0.6000000000000001 0  -0.8 0.6000000000000001 0  -0.6000000000000001 0.6000000000000001 0  -0.3999999999999999 0.6000000000000001 0  -0.2 0.6000000000000001 0  0 0.6000000000000001 0  0.2000000000000002 0.6000000000000001 0  0.3999999999999999 0.6000000000000001 0  0.6000000000000001 0.6000000000000001 0  0.7999999999999998 0.6000000000000001 0  1 0.6000000000000001 0  1.2 0.6000000000000001 0  1.4 0.6000000000000001 0  1.6 0.6000000000000001 0  1.8 0.6000000000000001 0  2 0.6000000000000001 0  -2 0.7999999999999998 0  -1.8 0.7999999999999998 0  -1.6 0.7999999999999998 0  -1.4 0.7999999999999998 0  -1.2 0.7999999999999998 0  -1 0.7999999999999998 0  -0.8 0.7999999999999998 0  -0.6000000000000001 0.7999999999999998 0  -0.3999999999999999 0.7999999999999998 0  -0.2 0.7999999999999998 0  0 0.7999999999999998 0  0.2000000000000002 0.7999999999999998 0  0.3999999999999999 0.7999999999999998 0  0.6000000000000001 0.7999999999999998 0  0.7999999999999998 0.7999999999999998 0  1 0.7999999999999998 0  1.2 0.7999999999999998 0  1.4 0.7999999999999998 0  1.6 0.7999999999999998 0  1.8 0.7999999999999998 0  2 0.7999999999999998 0  -2 1 0  -1.8 1 0  -1.6 1 0  -1.4 1 0  -1.2 1 0  -1 1 0  -0.8 1 0  -0.6000000000000001 1 0  -0.3999999999999999 1 0  -0.2 1 0  0 1 0  0.2000000000000002 1 0  0.3999999999999999 1 0  0.6000000000000001 1 0  0.7999999999999998 1 0  1 1 0  1.2 1 0  1.4 1 0  1.6 1 0  1.8 1 0  2 1 0  -2 1.2 0  -1.8 1.2 0  -1.6 1.2 0  -1.4 1.2 0  -1.2 1.2 0  -1 1.2 0  -0.8 1.2 0  -0.6000000000000001 1.2 0  -0.3999999999999999 1.2 0  -0.2 1.2 0  0 1.2 0  0.2000000000000002 1.2 0  0.3999999999999999 1.2 0  0.6000000000000001 1.2 0  0.7999999999999998 1.2 0  1 1.2 0  1.2 1.2 0  1.4 1.2 0  1.6 1.2 0  1.8 1.2 0  2 1.2 0  -2 1.4 0  -1.8 1.4 0  -1.6 1.4 0  -1.4 1.4 0  -1.2 1.4 0  -1 1.4 0  -0.8 1.4 0  -0.6000000000000001 1.4 0  -0.3999999999999999 1.4 0  -0.2 1.4 0  0 1.4 0  0.2000000000000002 1.4 0  0.3999999999999999 1.4 0  0.6000000000000001 1.4 0  0.7999999999999998 1.4 0  1 1.4 0  1.2 1.4 0  1.4 1.4 0  1.6 1.4 0  1.8 1.4 0  2 1.4 0  -2 1.6 0  -1.8 1.6 0  -1.6 1.6 0  -1.4 1.6 0  -1.2 1.6 0  -1 1.6 0  -0.8 1.6 0  -0.6000000000000001 1.6 0  -0.3999999999999999 1.6 0  -0.2 1.6 0  0 1.6 0  0.2000000000000002 1.6 0  0.3999999999999999 1.6 0  0.6000000000000001 1.6 0  0.7999999999999998 1.6 0  1 1.6 0  1.2 1.6 0  1.4 1.6 0  1.6 1.6 0  1.8 1.6 0  2 1.6 0  -2 1.8 0  -1.8 1.8 0  -1.6 1.8 0  -1.4 1.8 0  -1.2 1.8 0  -1 1.8 0  -0.8 1.8 0  -0.6000000000000001 1.8 0  -0.3999999999999999 1.8 0  -0.2 1.8 0  0 1.8 0  0.2000000000000002 1.8 0  0.3999999999999999 1.8 0  0.6000000000000001 1.8 0  0.7999999999999998 1.8 0  1 1.8 0  1.2 1.8 0  1.4 1.8 0  1.6 1.8 0  1.8 1.8 0  2 1.8 0  -2 2 0  -1.8 2 0  -1.6 2 0  -1.4 2 0  -1.2 2 0  -1 2 0  -0.8 2 0  -0.6000000000000001 2 0  -0.3999999999999999 2 0  -0.2 2 0  0 2 0  0.2000000000000002 2 0  0.3999999999999999 2 0  0.6000000000000001 2 0  0.7999999999999998 2 0  1 2 0  1.2 2 0  1.4 2 0  1.6 2 0  1.8 2 0  2 2 0  </DataArray>
</Points>
<Cells>
[...]
<PointData  Scalars="f_8"> 
<DataArray  type="Float64"  Name="f_8"  format="ascii">1.0576833066917762e-02  0.0000000000000000e+00  0.0000000000000000e+00  0.0000000000000000e+00  0.0000000000000000e+00  0.0000000000000000e+00  0.0000000000000000e+00  0.0000000000000000e+00  0.0000000000000000e+00  0.0000000000000000e+00  0.0000000000000000e+00  0.0000000000000000e+00  0.0000000000000000e+00  0.0000000000000000e+00  0.0000000000000000e+00  0.0000000000000000e+00  0.0000000000000000e+00  0.0000000000000000e+00  0.0000000000000000e+00  0.0000000000000000e+00  0.0000000000000000e+00  1.1056482890839379e-01  1.0954337816411584e-01  1.0776090978518893e-01  1.0520946155478628e-01  1.0190214966915669e-01  9.7880221959920771e-02  9.3205295659155613e-02  8.7952918022088308e-02  8.2206951157191344e-02  7.6054573763529795e-02  6.9581856484632540e-02  6.2869951474355451e-02  5.5991969757087194e-02  4.9010620838680526e-02  4.1976670384137389e-02  3.4928242401198510e-02  2.7890958536977983e-02  2.0878873369089002e-02  1.3896134316496576e-02  6.9392706137756943e-03  0.0000000000000000e+00  2.0808686430639456e-01  2.0707179782536311e-01  2.0429831109561877e-01  1.9984626619852230e-01  1.9381824237910739e-01  1.8634030144232211e-01  1.7755916907832969e-01  1.6763715427571074e-01  1.5674578370011624e-01  1.4505889511542097e-01  1.3274578428256836e-01  1.1996488743981353e-01  1.0685838316954892e-01  9.3548002924712145e-02  8.0132245734699487e-02  6.6685100416927046e-02  5.3256290357155033e-02  3.9872974220746780e-02  2.6542762934842281e-02  1.3257850129193609e-02  0.0000000000000000e+00  2.8845572415218473e-01  2.8717450720456539e-01  2.8347187788034500e-01  2.7743177123947171e-01  2.6918494398424408e-01  2.5890242968153149e-01  2.4678764171331463e-01  2.3306730752172308e-01  2.1798164878029996e-01  2.0177433258867145e-01  1.8468274889458944e-01  1.6692914312333704e-01  1.4871306665353759e-01  1.3020551389191765e-01  1.1154500394421105e-01  9.2835746557159954e-02  7.4147914027411929e-02  5.5519929495072062e-02  3.6962582181327169e-02  1.8464694853864691e-02  0.0000000000000000e+00  3.4832235986933263e-01  3.4683490703137182e-01  3.4242901389373476e-01  3.3520048668965857e-01  3.2530248928431127e-01  3.1293809820732987e-01  2.9835072848737121e-01  2.8181298924643278e-01  2.6361460622484612e-01  2.4405009090093763e-01  2.2340683457750218e-01  2.0195426112070250e-01  1.7993458949111968e-01  1.5755564533154820e-01  1.3498602960219772e-01  1.1235281165105700e-01  8.9741773410816489e-02  6.7200098354766410e-02  4.4741279299186636e-02  2.2351917092776553e-02  0.0000000000000000e+00  3.8883841208877290e-01  3.8720789182042226e-01  3.8232243212359840e-01  3.7428698365634328e-01  3.6327047673371143e-01  3.4949774734614109e-01  3.3323899382833233e-01  3.1479740546171775e-01  2.9449569632218164e-01  2.7266232093156018e-01  2.4961814141314645e-01  2.2566426173799972e-01  2.0107164980030517e-01  1.7607304166727458e-01  1.5085747506194505e-01  1.2556764185154343e-01  1.0030009212150481e-01  7.5108173831232750e-02  5.0007458579712442e-02  2.4983290071185025e-02  0.0000000000000000e+00  4.1380390410891815e-01  4.1207877380389790e-01  4.0689212526735435e-01  3.9835473135986549e-01  3.8664536500775409e-01  3.7200230008151519e-01  3.5471217190505616e-01  3.3509687321601356e-01  3.1349926412723178e-01  2.9026852338264042e-01  2.6574596224685693e-01  2.4025206535288829e-01  2.1407542207906524e-01  1.8746407752011324e-01  1.6061967528553558e-01  1.3369459683636423e-01  1.0679213461793176e-01  7.9969577938149475e-02  5.3243948314567899e-02  2.6599999571241081e-02  0.0000000000000000e+00  4.2782913162054381e-01  4.2604395279092394e-01  4.2068188023550163e-01  4.1185707483021106e-01  3.9975391960249640e-01  3.8461827574375740e-01  3.6674600831775200e-01  3.4646947648459520e-01  3.2414279046322397e-01  3.0012668900597350e-01  2.7477388598436892e-01  2.4841567650747240e-01  2.2135048939224253e-01  1.9383493412726166e-01  1.6607772856009848e-01  1.3823672045330040e-01  1.1041904294786864e-01  8.2684280258815940e-02  5.5050372802283906e-02  2.7501865298217326e-02  0.0000000000000000e+00  4.3498874854133435e-01  4.3316711468521468e-01  4.2771013513733652e-01  4.1873380387083003e-01  4.0642544654594298e-01  3.9103485016394479e-01  3.7286261841119395e-01  3.5224645727597198e-01  3.2954620496746662e-01  3.0512847294073636e-01  2.7935175997530953e-01  2.5255284249991855e-01  2.2503513937269440e-01  1.9705960861619964e-01  1.6883856920395449e-01  1.4053266516246940e-01  1.1225101333958452e-01  8.4054409780084771e-02  5.5961320075827561e-02  2.7956251295686997e-02  0.0000000000000000e+00  4.3819416393182015e-01  4.3635144971606782e-01  4.3084748346371360e-01  4.2179917031710379e-01  4.0939522946556944e-01  3.9388726615008768e-01  3.7557805057348004e-01  3.5480771268422351e-01  3.3193867207303884e-01  3.0734017546773923e-01  2.8137330954627965e-01  2.5437729774785922e-01  2.2665778415597299e-01  1.9847766592006535e-01  1.7005087018794343e-01  1.4153929448921809e-01  1.1305295237481805e-01  8.4653198537891439e-02  5.6358757009778354e-02  2.8154147359379687e-02  0.0000000000000000e+00  4.3910616794359003e-01  4.3725211084745075e-01  4.3172962611589466e-01  4.2265597860736454e-01  4.1022037560891289e-01  3.9467502130912552e-01  3.7632337329192372e-01  3.5550631127908838e-01  3.3258703882866908e-01  3.0793559205064364e-01  2.8191382463665815e-01  2.5486167935766108e-01  2.2708545038223449e-01  1.9884859889306813e-01  1.7036551866719074e-01  1.4179847091294570e-01  1.1325773018232120e-01  8.4804815281761078e-02  5.6458528197531693e-02  2.8203395162490187e-02  0.0000000000000000e+00  4.3825741488850029e-01  4.3639920389373388e-01  4.3087973003079599e-01  4.2181618590730718e-01  4.0939756866322607e-01  3.9387574878909382e-01  3.7555374616952408e-01  3.5477192239414246e-01  3.3189290865409177e-01  3.0728614178023117e-01  2.8131287618953382e-01  2.5431248042655080e-01  2.2659072132927288e-01  1.9841059718412779e-01  1.6998611568544203e-01  1.4147923543930641e-01  1.1300001259273522e-01  8.4609826591348025e-02  5.6327408468108076e-02  2.8137266459132622e-02  0.0000000000000000e+00  4.3512076979608405e-01  4.3326749153299915e-01  4.2777883325808452e-01  4.1877132894840868e-01  4.0643283253943452e-01  3.9101364501502062e-01  3.7281486669217972e-01  3.5217467925922447e-01  3.2945337170274491e-01  3.0501797712971407e-01  2.7922738268213010e-01  2.5241871597840687e-01  2.2489570647311868e-01  1.9691957931933118e-01  1.6870287480001853e-01  1.4040641045386054e-01  1.1213942702877712e-01  8.3962792956606247e-02  5.5894992497687430e-02  2.7920495030729339e-02  0.0000000000000000e+00  4.2802825170950609e-01  4.2619736635105082e-01  4.2078948480411593e-01  4.1191940199291166e-01  3.9977214368245900e-01  3.8459423077965060e-01  3.6668220892802589e-01  3.4636913769568101e-01  3.2400984161858876e-01  2.9996577739446645e-01  2.7459036670073861e-01  2.4821558612913497e-01  2.2114050216753436e-01  1.9362230038842976e-01  1.6587019590847535e-01  1.3804243887673812e-01  1.1024645543769661e-01  8.2542000756640976e-02  5.4947053515399177e-02  2.7446055671601719e-02  0.0000000000000000e+00  4.1403953292507056e-01  4.1226501029381507e-01  4.0702866546327282e-01  3.9844158257926232e-01  3.8668292743963539e-01  3.7199148698367113e-01  3.5465455377962402e-01  3.3499482976389561e-01  3.1335612776329330e-01  2.9008869942722604e-01  2.6553501328326895e-01  2.4001675028629624e-01  2.1382368377866257e-01  1.8720497624709134e-01  1.6036326816027749e-01  1.3345176623825672e-01  1.0657437060641504e-01  7.9788721591680101e-02  5.3111904422014765e-02  2.6528428510331763e-02  0.0000000000000000e+00  3.8903146878313338e-01  3.8737098805486708e-01  3.8245469761464412e-01  3.7438678840671830e-01  3.6333568517635051e-01  3.4952606720018264e-01  3.3322838439331703e-01  3.1474650748371730e-01  2.9440424624848294e-01  2.7253151571590400e-01  2.4945092536266056e-01  2.2546551351932281e-01  2.0084825499174461e-01  1.7583384358117762e-01  1.5061310351948731e-01  1.2533022588716466e-01  1.0008286811703447e-01  7.4925005374271977e-02  4.9872288550915862e-02  2.4909549256829665e-02  0.0000000000000000e+00  3.4834750421536481e-01  3.4688360737627616e-01  3.4249889327719518e-01  3.3528641795061992e-01  3.2539718603308909e-01  3.1303286939832625e-01  2.9843632599965692e-01  2.8188047903003655e-01  2.6365619877618840e-01  2.4405987446965113e-01  2.2338136397618541e-01  2.0189296586298405e-01  1.7983997668354884e-01  1.5743328468146625e-01  1.3484431950831316e-01  1.1220253620186096e-01  8.9595470036006458e-02  6.7071264887357693e-02  4.4643457496656609e-02  2.2297697446206868e-02  0.0000000000000000e+00  2.8818473103799136e-01  2.8701372202212283e-01  2.8341508375426216e-01  2.7746747834652558e-01  2.6929759484260174e-01  2.5907376575636798e-01  2.4699810781352918e-01  2.3329741226179548e-01  2.1821321552928319e-01  2.0199158284540147e-01  1.8487316677671367e-01  1.6708407853521437e-01  1.4882804611006900e-01  1.3028024122785825e-01  1.1158304723604463e-01  9.2843921682302419e-02  7.4135388917862255e-02  5.5497086289761126e-02  3.6939687500467347e-02  1.8450441845132816e-02  0.0000000000000000e+00  2.0747695163330648e-01  2.0667080565213247e-01  2.0409048327247145e-01  1.9980875400284798e-01  1.9392400729399187e-01  1.8656017181480317e-01  1.7786344972936902e-01  1.6799699639033081e-01  1.5713438511354352e-01  1.4545252903728084e-01  1.3312462137036160e-01  1.2031356621747415e-01  1.0716628732434935e-01  9.3809214765043364e-02  8.0345159042706296e-02  6.6851690648299780e-02  5.3381054448141251e-02  3.9961566118597198e-02  2.6600365499358486e-02  1.3287341788475947e-02  0.0000000000000000e+00  1.0977923427146441e-01  1.0903916342867630e-01  1.0749424658978987e-01  1.0513266477398620e-01  1.0197567639976646e-01  9.8069760024969435e-02  9.3480264155280629e-02  8.8285847453313804e-02  8.2573382759874692e-02  7.6433226917624386e-02  6.9954885592999061e-02  6.3223164315411765e-02  5.6314916406642650e-02  4.9296490212908557e-02  4.2221952370620354e-02  3.5132128164065489e-02  2.8054459799314650e-02  2.1003642472855709e-02  1.3982958918607603e-02  6.9861968284095416e-03  0.0000000000000000e+00  1.0163051788859538e-02  0.0000000000000000e+00  0.0000000000000000e+00  0.0000000000000000e+00  0.0000000000000000e+00  0.0000000000000000e+00  0.0000000000000000e+00  0.0000000000000000e+00  0.0000000000000000e+00  0.0000000000000000e+00  0.0000000000000000e+00  0.0000000000000000e+00  0.0000000000000000e+00  0.0000000000000000e+00  0.0000000000000000e+00  0.0000000000000000e+00  0.0000000000000000e+00  0.0000000000000000e+00  0.0000000000000000e+00  0.0000000000000000e+00  0.0000000000000000e+00  </DataArray> 
</PointData> 
</Piece>
</UnstructuredGrid>
</VTKFile>