<?xml version="1.0"?>
<VTKFile type="UnstructuredGrid"  version="0.1"  >
<UnstructuredGrid>
<Piece  NumberOfPoints="441" NumberOfCells="800">
<Points>
<DataArray  type="Float64"  NumberOfComponents="3"  format="ascii">-2 -2 0  -1.8 -2 0  -1.6 -2 0  -1.4 -2 0  -1.2 -2 0  -1 -2 0  -0.8 -2 0  -0.6000000000000001 -2 0  -0.3999999999999999 -2 0  -0.2 -2 0  0 -2 0  0.2000000000000002 -2 0  0.3999999999999999 -2 0  0.6000000000000001 -2 0  0.7999999999999998 -2 0  1 -2 0  1.2 -2 0  1.4 -2 0  1.6 -2 0  1.8 -2 0  2 -2 0  -2 -1.8 0  -1.8 -1.8 0  -1.6 -1.8 0  -1.4 -1.8 0  -1.2 -1.8 0  -1 -1.8 0  -0.8 -1.8 0  -0.6000000000000001 -1.8 0  -0.3999999999999999 -1.8 0  -0.2 -1.8 0  0 -1.8 0  0.2000000000000002 -1.8 0  0.3999999999999999 -1.8 0  0.6000000000000001 -1.8 0  0.7999999999999998 -1.8 0  1 -1.8 0  1.2 -1.8 0  1.4 -1.8 0  1.6 -1.8 0  1.8 -1.8 0  2 -1.8 0  -2 -1.6 0  -1.8 -1.6 0  -1.6 -1.6 0  -1.4 -1.6 0  -1.2 -1.6 0  -1 -1.6 0  -0.8 -1.6 0  -0.6000000000000001 -1.6 0  -0.3999999999999999 -1.6 0  -0.2 -1.6 0  0 -1.6 0  0.2000000000000002 -1.6 0  0.3999999999999999 -1.6 0  0.6000000000000001 -1.6 0  0.7999999999999998 -1.6 0  1 -1.6 0  1.2 -1.6 0  1.4 -1.6 0  1.6 -1.6 0  1.8 -1.6 0  2 -1.6 0  -2 -1.4 0  -1.8 -1.4 0  -1.6 -1.4 0  -1.4 -1.4 0  -1.2 -1.4 0  -1 -1.4 0  -0.8 -1.4 0  -0.6000000000000001 -1.4 0  -0.3999999999999999 -1.4 0  -0.2 -1.4 0  0 -1.4 0  0.2000000000000002 -1.4 0  0.3999999999999999 -1.4 0  0.6000000000000001 -1.4 0  0.7999999999999998 -1.4 0  1 -1.4 0  1.2 -1.4 0  1.4 -1.4 0  1.6 -1.4 0  1.8 -1.4 0  2 -1.4 0  -2 -1.2 0  -1.8 -1.2 0  -1.6 -1.2 0  -1.4 -1.2 0  -1.2 -1.2 0  -1 -1.2 0  -0.8 -1.2 0  -0.6000000000000001 -1.2 0  -0.3999999999999999 -1.2 0  -0.2 -1.2 0  0 -1.2 0  0.2000000000000002 -1.2 0  0.3999999999999999 -1.2 0  0.6000000000000001 -1.2 0  0.7999999999999998 -1.2 0  1 -1.2 0  1.2 -1.2 0  1.4 -1.2 0  1.6 -1.2 0  1.8 -1.2 0  2 -1.2 0  -2 -1 0  -1.8 -1 0  -1.6 -1 0  -1.4 -1 0  -1.2 -1 0  -1 -1 0  -0.8 -1 0  -0.6000000000000001 -1 0  -0.3999999999999999 -1 0  -0.2 -1 0  0 -1 0  0.2000000000000002 -1 0  0.3999999999999999 -1 0  0.6000000000000001 -1 0  0.7999999999999998 -1 0  1 -1 0  1.2 -1 0  1.4 -1 0  1.6 -1 0  1.8 -1 0  2 -1 0  -2 -0.8 0  -1.8 -0.8 0  -1.6 -0.8 0  -1.4 -0.8 0  -1.2 -0.8 0  -1 -0.8 0  -0.8 -0.8 0  -0.6000000000000001 -0.8 0  -0.3999999999999999 -0.8 0  -0.2 -0.8 0  0 -0.8 0  0.2000000000000002 -0.8 0  0.3999999999999999 -0.8 0  0.6000000000000001 -0.8 0  0.7999999999999998 -0.8 0  1 -0.8 0  1.2 -0.8 0  1.4 -0.8 0  1.6 -0.8 0  1.8 -0.8 0  2 -0.8 0  -2 -0.6000000000000001 0  -1.8 -0.6000000000000001 0  -1.6 -0.6000000000000001 0  -1.4 -0.6000000000000001 0  -1.2 -0.6000000000000001 0  -1 -0.6000000000000001 0  -0.8 -0.6000000000000001 0  -0.6000000000000001 -0.6000000000000001 0  -0.3999999999999999 -0.6000000000000001 0  -0.2 -0.6000000000000001 0  0 -0.6000000000000001 0  0.2000000000000002 -0.6000000000000001 0  0.3999999999999999 -0.6000000000000001 0  0.6000000000000001 -0.6000000000000001 0  0.7999999999999998 -0.6000000000000001 0  1 -0.6000000000000001 0  1.2 -0.6000000000000001 0  1.4 -0.6000000000000001 0  1.6 -0.6000000000000001 0  1.8 -0.6000000000000001 0  2 -0.6000000000000001 0  -2 -0.3999999999999999 0  -1.8 -0.3999999999999999 0  -1.6 -0.3999999999999999 0  -1.4 -0.3999999999999999 0  -1.2 -0.3999999999999999 0  -1 -0.3999999999999999 0  -0.8 -0.3999999999999999 0  -0.6000000000000001 -0.3999999999999999 0  -0.3999999999999999 -0.3999999999999999 0  -0.2 -0.3999999999999999 0  0 -0.3999999999999999 0  0.2000000000000002 -0.3999999999999999 0  0.3999999999999999 -0.3999999999999999 0  0.6000000000000001 -0.3999999999999999 0  0.7999999999999998 -0.3999999999999999 0  1 -0.3999999999999999 0  1.2 -0.3999999999999999 0  1.4 -0.3999999999999999 0  1.6 -0.3999999999999999 0  1.8 -0.3999999999999999 0  2 -0.3999999999999999 0  -2 -0.2 0  -1.8 -0.2 0  -1.6 -0.2 0  -1.4 -0.2 0  -1.2 -0.2 0  -1 -0.2 0  -0.8 -0.2 0  -0.6000000000000001 -0.2 0  -0.3999999999999999 -0.2 0  -0.2 -0.2 0  0 -0.2 0  0.2000000000000002 -0.2 0  0.3999999999999999 -0.2 0  0.6000000000000001 -0.2 0  0.7999999999999998 -0.2 0  1 -0.2 0  1.2 -0.2 0  1.4 -0.2 0  1.6 -0.2 0  1.8 -0.2 0  2 -0.2 0  -2 0 0  -1.8 0 0  -1.6 0 0  -1.4 0 0  -1.2 0 0  -1 0 0  -0.8 0 0  -0.6000000000000001 0 0  -0.3999999999999999 0 0  -0.2 0 0  0 0 0  0.2000000000000002 0 0  0.3999999999999999 0 0  0.6000000000000001 0 0  0.7999999999999998 0 0  1 0 0  1.2 0 0  1.4 0 0  1.6 0 0  1.8 0 0  2 0 0  -2 0.2000000000000002 0  -1.8 0.2000000000000002 0  -1.6 0.2000000000000002 0  -1.4 0.2000000000000002 0  -1.2 0.2000000000000002 0  -1 0.2000000000000002 0  -0.8 0.2000000000000002 0  -0.6000000000000001 0.2000000000000002 0  -0.3999999999999999 0.2000000000000002 0  -0.2 0.2000000000000002 0  0 0.2000000000000002 0  0.2000000000000002 0.2000000000000002 0  0.3999999999999999 0.2000000000000002 0  0.6000000000000001 0.2000000000000002 0  0.7999999999999998 0.2000000000000002 0  1 0.2000000000000002 0  1.2 0.2000000000000002 0  1.4 0.2000000000000002 0  1.6 0.2000000000000002 0  1.8 0.2000000000000002 0  2 0.2000000000000002 0  -2 0.3999999999999999 0  -1.8 0.3999999999999999 0  -1.6 0.3999999999999999 0  -1.4 0.3999999999999999 0  -1.2 0.3999999999999999 0  -1 0.3999999999999999 0  -0.8 0.3999999999999999 0  -0.6000000000000001 0.3999999999999999 0  -0.3999999999999999 0.3999999999999999 0  -0.2 0.3999999999999999 0  0 0.3999999999999999 0  0.2000000000000002 0.3999999999999999 0  0.3999999999999999 0.3999999999999999 0  0.6000000000000001 0.3999999999999999 0  0.7999999999999998 0.3999999999999999 0  1 0.3999999999999999 0  1.2 0.3999999999999999 0  1.4 0.3999999999999999 0  1.6 0.3999999999999999 0  1.8 0.3999999999999999 0  2 0.3999999999999999 0  -2 0.6000000000000001 0  -1.8 0.6000000000000001 0  -1.6 0.6000000000000001 0  -1.4 0.6000000000000001 0  -1.2 0.6000000000000001 0  -1 0.6000000000000001 0  -0.8 0.6000000000000001 0  -0.6000000000000001 0.6000000000000001 0  -0.3999999999999999 0.6000000000000001 0  -0.2 0.6000000000000001 0  0 0.6000000000000001 0  0.2000000000000002 0.6000000000000001 0  0.3999999999999999 0.6000000000000001 0  0.6000000000000001 0.6000000000000001 0  0.7999999999999998 0.6000000000000001 0  1 0.6000000000000001 0  1.2 0.6000000000000001 0  1.4 0.6000000000000001 0  1.6 0.6000000000000001 0  1.8 0.6000000000000001 0  2 0.6000000000000001 0  -2 0.7999999999999998 0  -1.8 0.7999999999999998 0  -1.6 0.7999999999999998 0  -1.4 0.7999999999999998 0  -1.2 0.7999999999999998 0  -1 0.7999999999999998 0  -0.8 0.7999999999999998 0  -0.6000000000000001 0.7999999999999998 0  -0.3999999999999999 0.7999999999999998 0  -0.2 0.7999999999999998 0  0 0.7999999999999998 0  0.2000000000000002 0.7999999999999998 0  0.3999999999999999 0.7999999999999998 0  0.6000000000000001 0.7999999999999998 0  0.7999999999999998 0.7999999999999998 0  1 0.7999999999999998 0  1.2 0.7999999999999998 0  1.4 0.7999999999999998 0  1.6 0.7999999999999998 0  1.8 0.7999999999999998 0  2 0.7999999999999998 0  -2 1 0  -1.8 1 0  -1.6 1 0  -1.4 1 0  -1.2 1 0  -1 1 0  -0.8 1 0  -0.6000000000000001 1 0  -0.3999999999999999 1 0  -0.2 1 0  0 1 0  0.2000000000000002 1 0  0.3999999999999999 1 0  0.6000000000000001 1 0  0.7999999999999998 1 0  1 1 0  1.2 1 0  1.4 1 0  1.6 1 0  1.8 1 0  2 1 0  -2 1.2 0  -1.8 1.2 0  -1.6 1.2 0  -1.4 1.2 0  -1.2 1.2 0  -1 1.2 0  -0.8 1.2 0  -0.6000000000000001 1.2 0  -0.3999999999999999 1.2 0  -0.2 1.2 0  0 1.2 0  0.2000000000000002 1.2 0  0.3999999999999999 1.2 0  0.6000000000000001 1.2 0  0.7999999999999998 1.2 0  1 1.2 0  1.2 1.2 0  1.4 1.2 0  1.6 1.2 0  1.8 1.2 0  2 1.2 0  -2 1.4 0  -1.8 1.4 0  -1.6 1.4 0  -1.4 1.4 0  -1.2 1.4 0  -1 1.4 0  -0.8 1.4 0  -0.6000000000000001 1.4 0  -0.3999999999999999 1.4 0  -0.2 1.4 0  0 1.4 0  0.2000000000000002 1.4 0  0.3999999999999999 1.4 0  0.6000000000000001 1.4 0  0.7999999999999998 1.4 0  1 1.4 0  1.2 1.4 0  1.4 1.4 0  1.6 1.4 0  1.8 1.4 0  2 1.4 0  -2 1.6 0  -1.8 1.6 0  -1.6 1.6 0  -1.4 1.6 0  -1.2 1.6 0  -1 1.6 0  -0.8 1.6 0  -0.6000000000000001 1.6 0  -0.3999999999999999 1.6 0  -0.2 1.6 0  0 1.6 0  0.2000000000000002 1.6 0  0.3999999999999999 1.6 0  0.6000000000000001 1.6 0  0.7999999999999998 1.6 0  1 1.6 0  1.2 1.6 0  1.4 1.6 0  1.6 1.6 0  1.8 1.6 0  2 1.6 0  -2 1.8 0  -1.8 1.8 0  -1.6 1.8 0  -1.4 1.8 0  -1.2 1.8 0  -1 1.8 0  -0.8 1.8 0  -0.6000000000000001 1.8 0  -0.3999999999999999 1.8 0  -0.2 1.8 0  0 1.8 0  0.2000000000000002 1.8 0  0.3999999999999999 1.8 0  0.6000000000000001 1.8 0  0.7999999999999998 1.8 0  1 1.8 0  1.2 1.8 0  1.4 1.8 0  1.6 1.8 0  1.8 1.8 0  2 1.8 0  -2 2 0  -1.8 2 0  -1.6 2 0  -1.4 2 0  -1.2 2 0  -1 2 0  -0.8 2 0  -0.6000000000000001 2 0  -0.3999999999999999 2 0  -0.2 2 0  0 2 0  0.2000000000000002 2 0  0.3999999999999999 2 0  0.6000000000000001 2 0  0.7999999999999998 2 0  1 2 0  1.2 2 0  1.4 2 0  1.6 2 0  1.8 2 0  2 2 0  </DataArray>
</Points>
<Cells>
[...]
<PointData  Scalars="f_8"> 
<DataArray  type="Float64"  Name="f_8"  format="ascii">1.4769089801423640e-01  1.3988452064227741e-01  1.2220193611059321e-01  9.8626363602379280e-02  7.3710387480257072e-02  5.1158628740768826e-02  3.3080571194946951e-02  2.0000843934613426e-02  1.1350940575345959e-02  6.0719666082895644e-03  3.0751158581378167e-03  1.4813783642725511e-03  6.8219039424250035e-04  3.0191054784546665e-04  1.2913051204611840e-04  5.3699929158627665e-05  2.1859623399060924e-05  8.7937480244105898e-06  3.5822559345561559e-06  1.6344374869437927e-06  1.1696314580398787e-06  1.4570923350479778e-01  1.3963281414324330e-01  1.2303541947540898e-01  9.9839021972900191e-02  7.4735407713076199e-02  5.1700711436818363e-02  3.3115632867132684e-02  1.9676130269416035e-02  1.0862260711906177e-02  5.5777248675063992e-03  2.6645167334941157e-03  1.1822893217292955e-03  4.8495157792732070e-04  1.8182531312791725e-04  6.0696820080386245e-05  1.6801329692838636e-05  2.8539915724402081e-06  -6.6969733193303408e-07  -1.1007259815340996e-06  -9.0474745032316071e-07  -8.1421881695641681e-07  1.4577285046158953e-01  1.3980141835004592e-01  1.2334508264781351e-01  1.0017791164961745e-01  7.4964832559509337e-02  5.1744721816653225e-02  3.2986181417261499e-02  1.9443830849051602e-02  1.0608709745071535e-02  5.3610486939939658e-03  2.5091242470958240e-03  1.0863877275712585e-03  4.3391750365884952e-04  1.5900937501713884e-04  5.2957228804764484e-05  1.5787610215335991e-05  4.1291593526427990e-06  9.5006510526300094e-07  2.4081172473804459e-07  1.3305833487877719e-07  1.4065976208914781e-07  1.4585319941205613e-01  1.3988680194312597e-01  1.2343088034281771e-01  1.0024309079899274e-01  7.4986941209158928e-02  5.1717478733311360e-02  3.2923886387775166e-02  1.9371664854216937e-02  1.0548809138780457e-02  5.3241357517282480e-03  2.4944926444464628e-03  1.0869527539049103e-03  4.4164758258314425e-04  1.6807344521904062e-04  6.0403537283584930e-05  2.0821120397411512e-05  7.0716484151120372e-06  2.4611391516835724e-06  9.2008172095945154e-07  4.0373483037140550e-07  2.8280960863843423e-07  1.4586369812955344e-01  1.3989658612315350e-01  1.2343808417819863e-01  1.0024509231786738e-01  7.4982301752871475e-02  5.1707925550969473e-02  3.2913938434987050e-02  1.9365990176740878e-02  1.0549580684495623e-02  5.3303378689884117e-03  2.5032044319860873e-03  1.0952394944981627e-03  4.4777347025018026e-04  1.7167062479408240e-04  6.1981597453713322e-05  2.1164779176158306e-05  6.8478798461515571e-06  2.0831216162381231e-06  5.7284580747901289e-07  1.2291273322042243e-07  2.2004700295736909e-08  1.4586282544912965e-01  1.3989546121403987e-01  1.2343671268336523e-01  1.0024355528615760e-01  7.4980893122289838e-02  5.1707186239550312e-02  3.2914391411694943e-02  1.9367728906623752e-02  1.0552098283981147e-02  5.3327831669967721e-03  2.5048548128954848e-03  1.0958264359308704e-03  4.4748360580316743e-04  1.7091804893049843e-04  6.1158437504609553e-05  2.0506670998528750e-05  6.4267283261816482e-06  1.8677051147585672e-06  4.9537714558505852e-07  1.2002523741014686e-07  4.5762916175155929e-08  1.4586271023730507e-01  1.3989533795913606e-01  1.2343660741558608e-01  1.0024350314907481e-01  7.4980932586229676e-02  5.1707337318269986e-02  3.2914619665500695e-02  1.9367930540166743e-02  1.0552141602997103e-02  5.3325891039399135e-03  2.5044523069725796e-03  1.0953362546218320e-03  4.4704702246576970e-04  1.7062703295753949e-04  6.1029784539486701e-05  2.0500916433370407e-05  6.4852322076982785e-06  1.9421009137334135e-06  5.5963872425238583e-07  1.6927378054276186e-07  9.0338166155948154e-08  1.4586273793522478e-01  1.3989537103403221e-01  1.2343664381251776e-01  1.0024353923864504e-01  7.4980962764702619e-02  5.1707353349236929e-02  3.2914611448556931e-02  1.9367891073323429e-02  1.0552075135256604e-02  5.3325153039892196e-03  2.5043995881308140e-03  1.0953267203836566e-03  4.4708413574734527e-04  1.7069515899784216e-04  6.1104622393631875e-05  2.0562136425192158e-05  6.5234036206437045e-06  1.9580876511125628e-06  5.5970182030294626e-07  1.6019170272432949e-07  7.7237753256120685e-08  1.4586273663430699e-01  1.3989536941158567e-01  1.2343664181893339e-01  1.0024353680079445e-01  7.4980959871529612e-02  5.1707350236532126e-02  3.2914608928094259e-02  1.9367890879902153e-02  1.0552079762288429e-02  5.3325267859135033e-03  2.5044176365171902e-03  1.0953477492342363e-03  4.4710245133024342e-04  1.7070580046477297e-04  6.1105834501207901e-05  2.0555806829056218e-05  6.5135025712299132e-06  1.9484704753227261e-06  5.5259864298484135e-07  1.5576991043182506e-07  7.3797029459784103e-08  1.4586273625492155e-01  1.3989536894730778e-01  1.2343664129975664e-01  1.0024353629167228e-01  7.4980959465938343e-02  5.1707350039440401e-02  3.2914609025343808e-02  1.9367891278076591e-02  1.0552080287832692e-02  5.3325269971752597e-03  2.5044168860666842e-03  1.0953454878816667e-03  4.4709863913106523e-04  1.7070109949193074e-04  6.1101366683944584e-05  2.0552611040520380e-05  6.5120712870568804e-06  1.9486581041538353e-06  5.5389301748080256e-07  1.5768436454771858e-07  7.6101572956926828e-08  1.4586273634380262e-01  1.3989536906387690e-01  1.2343664144221922e-01  1.0024353644823143e-01  7.4980959615228812e-02  5.1707350152924318e-02  3.2914609071014934e-02  1.9367891224909600e-02  1.0552080113286099e-02  5.3325267035852497e-03  2.5044165264487251e-03  1.0953451828186896e-03  4.4709855309223113e-04  1.7070136621039094e-04  6.1102002717693501e-05  2.0553483118497598e-05  6.5129492717298117e-06  1.9493200367966688e-06  5.5421643194792232e-07  1.5768698404285198e-07  7.5950144025698035e-08  1.4586273634171779e-01  1.3989536901771213e-01  1.2343664133895660e-01  1.0024353630783320e-01  7.4980959478196690e-02  5.1707350062366472e-02  3.2914609055539376e-02  1.9367891289960980e-02  1.0552080244341136e-02  5.3325268775307778e-03  2.5044167224719154e-03  1.0953453850901078e-03  4.4709874467762479e-04  1.7070152224890497e-04  6.1102092979430631e-05  2.0553485813885243e-05  6.5128660658483602e-06  1.9491784140947251e-06  5.5405398958308835e-07  1.5752534911991768e-07  7.5774776326070769e-08  1.4586273692572882e-01  1.3989536959448348e-01  1.2343664190223778e-01  1.0024353671861987e-01  7.4980959568804365e-02  5.1707349741677719e-02  3.2914608365752232e-02  1.9367890389627135e-02  1.0552079335244135e-02  5.3325261227291651e-03  2.5044161988413208e-03  1.0953450841939881e-03  4.4709860654025589e-04  1.7070147583165513e-04  6.1102084152431130e-05  2.0553486867517362e-05  6.5128709067801403e-06  1.9491917233977968e-06  5.5408171866237022e-07  1.5756974627587618e-07  7.5832016945537630e-08  1.4586272802259442e-01  1.3989536294852833e-01  1.2343663817794912e-01  1.0024353637692596e-01  7.4980962498324977e-02  5.1707355076700240e-02  3.2914614685339003e-02  1.9367896216245545e-02  1.0552083642706650e-02  5.3325285787182561e-03  2.5044170697043995e-03  1.0953449368957821e-03  4.4709800927177079e-04  1.7070082563442896e-04  6.1101575401685036e-05  2.0553164027010369e-05  6.5127012270330993e-06  1.9491204131897938e-06  5.5406089028374463e-07  1.5756793905982661e-07  7.5834002686503683e-08  1.4586277247657733e-01  1.3989539156615338e-01  1.2343664471526142e-01  1.0024352188692758e-01  7.4980934161496898e-02  5.1707323271943113e-02  3.2914588984446443e-02  1.9367882083317509e-02  1.0552081396428468e-02  5.3325347569449450e-03  2.5044269493072254e-03  1.0953546614758756e-03  4.4710550737015945e-04  1.7070563677899699e-04  6.1104173844385180e-05  2.0554310071090528e-05  6.5130570287868105e-06  1.9491225914270660e-06  5.5394276243164631e-07  1.5743127347134386e-07  7.5714394372100739e-08  1.4586295694987597e-01  1.3989556982812112e-01  1.2343683336474240e-01  1.0024369988782249e-01  7.4981061584874484e-02  5.1707367871865147e-02  3.2914545363006233e-02  1.9367773741951116e-02  1.0551947175685222e-02  5.3324104874014205e-03  2.5043334932612388e-03  1.0952963789733954e-03  4.4707589841021792e-04  1.7069450298141028e-04  6.1102533626555011e-05  2.0556266059340328e-05  6.5155977840548203e-06  1.9511417414002857e-06  5.5529604187935291e-07  1.5832003168240310e-07  7.6375396515950388e-08  1.4585983676103748e-01  1.3989301607145324e-01  1.2343518166242579e-01  1.0024307691926945e-01  7.4981380272615791e-02  5.1708349409417306e-02  3.2915801518798860e-02  1.9368940443445427e-02  1.0552798959205332e-02  5.3328935208837563e-03  2.5045185272074303e-03  1.0953009930392374e-03  4.4700408029621128e-04  1.7061151542293543e-04  6.1037122789965131e-05  2.0514086334461804e-05  6.4921339253307844e-06  1.9397023684283356e-06  5.5040011471013288e-07  1.5636356944084498e-07  7.5235251821953118e-08  1.4585577848702927e-01  1.3988877890472068e-01  1.2342963898401046e-01  1.0023598405604230e-01  7.4973848898926512e-02  5.1702240344465772e-02  3.2912513958362428e-02  1.9368659686133615e-02  1.0554648811424611e-02  5.3356234336482244e-03  2.5071257009260640e-03  1.0972798251330366e-03  4.4827314683905682e-04  1.7131523501508669e-04  6.1375185611168594e-05  2.0651338546485323e-05  6.5347148655851849e-06  1.9445516313398817e-06  5.4330774649161272e-07  1.4707757285708966e-07  6.7041627867183195e-08  1.4593707897121130e-01  1.3996511765814837e-01  1.2348814152825634e-01  1.0026065759913737e-01  7.4958744606305985e-02  5.1656268232171738e-02  3.2853545475452300e-02  1.9313737476433723e-02  1.0513574827839826e-02  5.3102531387290517e-03  2.4943176586316759e-03  1.0923902526414030e-03  4.4737536928441399e-04  1.7192302169372317e-04  6.2255940189297855e-05  2.1354618025945246e-05  6.9857775760916262e-06  2.1997782452264486e-06  6.7868526558899990e-07  2.2259748042873903e-07  1.2246590214556864e-07  1.4611389509376171e-01  1.4023654746213499e-01  1.2383900400964802e-01  1.0057279384164532e-01  7.5122711871390177e-02  5.1635857693049715e-02  3.2687699473522236e-02  1.9078469500098706e-02  1.0279784408195360e-02  5.1205618914071044e-03  2.3615317646066159e-03  1.0099330651504310e-03  4.0118587789306144e-04  1.4832762700701460e-04  5.1188100610967567e-05  1.6574032240640883e-05  5.0911044630757239e-06  1.5239777401626730e-06  4.7712706142683818e-07  1.8525297226762641e-07  1.0847127393427075e-07  1.4418635376071573e-01  1.4000559523587444e-01  1.2471524396889531e-01  1.0185989514313248e-01  7.6223765545796254e-02  5.2218559768210250e-02  3.2713332953270703e-02  1.8707509668633038e-02  9.7346194068708269e-03  4.5817653104756884e-03  1.9274279602734519e-03  7.0608698227189108e-04  2.1046766021455738e-04  3.8805062109980928e-05  -7.2132203850365092e-06  -1.2701735201946349e-05  -8.8643346284740782e-06  -4.8863035276766310e-06  -2.4342675732036485e-06  -1.2393272729034413e-06  -8.6637120165493721e-07  </DataArray> 
</PointData> 
</Piece>
</UnstructuredGrid>
</VTKFile>