<?xml version="1.0"?>
<VTKFile type="UnstructuredGrid"  version="0.1"  >
<UnstructuredGrid>
<Piece  NumberOfPoints="441" NumberOfCells="800">
<Points>
<DataArray  type="Float64"  NumberOfComponents="3"  format="ascii">-2 -2 0  -1.8 -2 0  -1.6 -2 0  -1.4 -2 0  -1.2 -2 0  -1 -2 0  -0.8 -2 0  -0.6000000000000001 -2 0  -0.3999999999999999 -2 0  -0.2 -2 0  0 -2 0  0.2000000000000002 -2 0  0.3999999999999999 -2 0  0.6000000000000001 -2 0  0.7999999999999998 -2 0  1 -2 0  1.2 -2 0  1.4 -2 0  1.6 -2 0  1.8 -2 0  2 -2 0  -2 -1.8 0  -1.8 -1.8 0  -1.6 -1.8 0  -1.4 -1.8 0  -1.2 -1.8 0  -1 -1.8 0  -0.8 -1.8 0  -0.6000000000000001 -1.8 0  -0.3999999999999999 -1.8 0  -0.2 -1.8 0  0 -1.8 0  0.2000000000000002 -1.8 0  0.3999999999999999 -1.8 0  0.6000000000000001 -1.8 0  0.7999999999999998 -1.8 0  1 -1.8 0  1.2 -1.8 0  1.4 -1.8 0  1.6 -1.8 0  1.8 -1.8 0  2 -1.8 0  -2 -1.6 0  -1.8 -1.6 0  -1.6 -1.6 0  -1.4 -1.6 0  -1.2 -1.6 0  -1 -1.6 0  -0.8 -1.6 0  -0.6000000000000001 -1.6 0  -0.3999999999999999 -1.6 0  -0.2 -1.6 0  0 -1.6 0  0.2000000000000002 -1.6 0  0.3999999999999999 -1.6 0  0.6000000000000001 -1.6 0  0.7999999999999998 -1.6 0  1 -1.6 0  1.2 -1.6 0  1.4 -1.6 0  1.6 -1.6 0  1.8 -1.6 0  2 -1.6 0  -2 -1.4 0  -1.8 -1.4 0  -1.6 -1.4 0  -1.4 -1.4 0  -1.2 -1.4 0  -1 -1.4 0  -0.8 -1.4 0  -0.6000000000000001 -1.4 0  -0.3999999999999999 -1.4 0  -0.2 -1.4 0  0 -1.4 0  0.2000000000000002 -1.4 0  0.3999999999999999 -1.4 0  0.6000000000000001 -1.4 0  0.7999999999999998 -1.4 0  1 -1.4 0  1.2 -1.4 0  1.4 -1.4 0  1.6 -1.4 0  1.8 -1.4 0  2 -1.4 0  -2 -1.2 0  -1.8 -1.2 0  -1.6 -1.2 0  -1.4 -1.2 0  -1.2 -1.2 0  -1 -1.2 0  -0.8 -1.2 0  -0.6000000000000001 -1.2 0  -0.3999999999999999 -1.2 0  -0.2 -1.2 0  0 -1.2 0  0.2000000000000002 -1.2 0  0.3999999999999999 -1.2 0  0.6000000000000001 -1.2 0  0.7999999999999998 -1.2 0  1 -1.2 0  1.2 -1.2 0  1.4 -1.2 0  1.6 -1.2 0  1.8 -1.2 0  2 -1.2 0  -2 -1 0  -1.8 -1 0  -1.6 -1 0  -1.4 -1 0  -1.2 -1 0  -1 -1 0  -0.8 -1 0  -0.6000000000000001 -1 0  -0.3999999999999999 -1 0  -0.2 -1 0  0 -1 0  0.2000000000000002 -1 0  0.3999999999999999 -1 0  0.6000000000000001 -1 0  0.7999999999999998 -1 0  1 -1 0  1.2 -1 0  1.4 -1 0  1.6 -1 0  1.8 -1 0  2 -1 0  -2 -0.8 0  -1.8 -0.8 0  -1.6 -0.8 0  -1.4 -0.8 0  -1.2 -0.8 0  -1 -0.8 0  -0.8 -0.8 0  -0.6000000000000001 -0.8 0  -0.3999999999999999 -0.8 0  -0.2 -0.8 0  0 -0.8 0  0.2000000000000002 -0.8 0  0.3999999999999999 -0.8 0  0.6000000000000001 -0.8 0  0.7999999999999998 -0.8 0  1 -0.8 0  1.2 -0.8 0  1.4 -0.8 0  1.6 -0.8 0  1.8 -0.8 0  2 -0.8 0  -2 -0.6000000000000001 0  -1.8 -0.6000000000000001 0  -1.6 -0.6000000000000001 0  -1.4 -0.6000000000000001 0  -1.2 -0.6000000000000001 0  -1 -0.6000000000000001 0  -0.8 -0.6000000000000001 0  -0.6000000000000001 -0.6000000000000001 0  -0.3999999999999999 -0.6000000000000001 0  -0.2 -0.6000000000000001 0  0 -0.6000000000000001 0  0.2000000000000002 -0.6000000000000001 0  0.3999999999999999 -0.6000000000000001 0  0.6000000000000001 -0.6000000000000001 0  0.7999999999999998 -0.6000000000000001 0  1 -0.6000000000000001 0  1.2 -0.6000000000000001 0  1.4 -0.6000000000000001 0  1.6 -0.6000000000000001 0  1.8 -0.6000000000000001 0  2 -0.6000000000000001 0  -2 -0.3999999999999999 0  -1.8 -0.3999999999999999 0  -1.6 -0.3999999999999999 0  -1.4 -0.3999999999999999 0  -1.2 -0.3999999999999999 0  -1 -0.3999999999999999 0  -0.8 -0.3999999999999999 0  -0.6000000000000001 -0.3999999999999999 0  -0.3999999999999999 -0.3999999999999999 0  -0.2 -0.3999999999999999 0  0 -0.3999999999999999 0  0.2000000000000002 -0.3999999999999999 0  0.3999999999999999 -0.3999999999999999 0  0.6000000000000001 -0.3999999999999999 0  0.7999999999999998 -0.3999999999999999 0  1 -0.3999999999999999 0  1.2 -0.3999999999999999 0  1.4 -0.3999999999999999 0  1.6 -0.3999999999999999 0  1.8 -0.3999999999999999 0  2 -0.3999999999999999 0  -2 -0.2 0  -1.8 -0.2 0  -1.6 -0.2 0  -1.4 -0.2 0  -1.2 -0.2 0  -1 -0.2 0  -0.8 -0.2 0  -0.6000000000000001 -0.2 0  -0.3999999999999999 -0.2 0  -0.2 -0.2 0  0 -0.2 0  0.2000000000000002 -0.2 0  0.3999999999999999 -0.2 0  0.6000000000000001 -0.2 0  0.7999999999999998 -0.2 0  1 -0.2 0  1.2 -0.2 0  1.4 -0.2 0  1.6 -0.2 0  1.8 -0.2 0  2 -0.2 0  -2 0 0  -1.8 0 0  -1.6 0 0  -1.4 0 0  -1.2 0 0  -1 0 0  -0.8 0 0  -0.6000000000000001 0 0  -0.3999999999999999 0 0  -0.2 0 0  0 0 0  0.2000000000000002 0 0  0.3999999999999999 0 0  0.6000000000000001 0 0  0.7999999999999998 0 0  1 0 0  1.2 0 0  1.4 0 0  1.6 0 0  1.8 0 0  2 0 0  -2 0.2000000000000002 0  -1.8 0.2000000000000002 0  -1.6 0.2000000000000002 0  -1.4 0.2000000000000002 0  -1.2 0.2000000000000002 0  -1 0.2000000000000002 0  -0.8 0.2000000000000002 0  -0.6000000000000001 0.2000000000000002 0  -0.3999999999999999 0.2000000000000002 0  -0.2 0.2000000000000002 0  0 0.2000000000000002 0  0.2000000000000002 0.2000000000000002 0  0.3999999999999999 0.2000000000000002 0  0.6000000000000001 0.2000000000000002 0  0.7999999999999998 0.2000000000000002 0  1 0.2000000000000002 0  1.2 0.2000000000000002 0  1.4 0.2000000000000002 0  1.6 0.2000000000000002 0  1.8 0.2000000000000002 0  2 0.2000000000000002 0  -2 0.3999999999999999 0  -1.8 0.3999999999999999 0  -1.6 0.3999999999999999 0  -1.4 0.3999999999999999 0  -1.2 0.3999999999999999 0  -1 0.3999999999999999 0  -0.8 0.3999999999999999 0  -0.6000000000000001 0.3999999999999999 0  -0.3999999999999999 0.3999999999999999 0  -0.2 0.3999999999999999 0  0 0.3999999999999999 0  0.2000000000000002 0.3999999999999999 0  0.3999999999999999 0.3999999999999999 0  0.6000000000000001 0.3999999999999999 0  0.7999999999999998 0.3999999999999999 0  1 0.3999999999999999 0  1.2 0.3999999999999999 0  1.4 0.3999999999999999 0  1.6 0.3999999999999999 0  1.8 0.3999999999999999 0  2 0.3999999999999999 0  -2 0.6000000000000001 0  -1.8 0.6000000000000001 0  -1.6 0.6000000000000001 0  -1.4 0.6000000000000001 0  -1.2 0.6000000000000001 0  -1 0.6000000000000001 0  -0.8 0.6000000000000001 0  -0.6000000000000001 0.6000000000000001 0  -0.3999999999999999 0.6000000000000001 0  -0.2 0.6000000000000001 0  0 0.6000000000000001 0  0.2000000000000002 0.6000000000000001 0  0.3999999999999999 0.6000000000000001 0  0.6000000000000001 0.6000000000000001 0  0.7999999999999998 0.6000000000000001 0  1 0.6000000000000001 0  1.2 0.6000000000000001 0  1.4 0.6000000000000001 0  1.6 0.6000000000000001 0  1.8 0.6000000000000001 0  2 0.6000000000000001 0  -2 0.7999999999999998 0  -1.8 0.7999999999999998 0  -1.6 0.7999999999999998 0  -1.4 0.7999999999999998 0  -1.2 0.7999999999999998 0  -1 0.7999999999999998 0  -0.8 0.7999999999999998 0  -0.6000000000000001 0.7999999999999998 0  -0.3999999999999999 0.7999999999999998 0  -0.2 0.7999999999999998 0  0 0.7999999999999998 0  0.2000000000000002 0.7999999999999998 0  0.3999999999999999 0.7999999999999998 0  0.6000000000000001 0.7999999999999998 0  0.7999999999999998 0.7999999999999998 0  1 0.7999999999999998 0  1.2 0.7999999999999998 0  1.4 0.7999999999999998 0  1.6 0.7999999999999998 0  1.8 0.7999999999999998 0  2 0.7999999999999998 0  -2 1 0  -1.8 1 0  -1.6 1 0  -1.4 1 0  -1.2 1 0  -1 1 0  -0.8 1 0  -0.6000000000000001 1 0  -0.3999999999999999 1 0  -0.2 1 0  0 1 0  0.2000000000000002 1 0  0.3999999999999999 1 0  0.6000000000000001 1 0  0.7999999999999998 1 0  1 1 0  1.2 1 0  1.4 1 0  1.6 1 0  1.8 1 0  2 1 0  -2 1.2 0  -1.8 1.2 0  -1.6 1.2 0  -1.4 1.2 0  -1.2 1.2 0  -1 1.2 0  -0.8 1.2 0  -0.6000000000000001 1.2 0  -0.3999999999999999 1.2 0  -0.2 1.2 0  0 1.2 0  0.2000000000000002 1.2 0  0.3999999999999999 1.2 0  0.6000000000000001 1.2 0  0.7999999999999998 1.2 0  1 1.2 0  1.2 1.2 0  1.4 1.2 0  1.6 1.2 0  1.8 1.2 0  2 1.2 0  -2 1.4 0  -1.8 1.4 0  -1.6 1.4 0  -1.4 1.4 0  -1.2 1.4 0  -1 1.4 0  -0.8 1.4 0  -0.6000000000000001 1.4 0  -0.3999999999999999 1.4 0  -0.2 1.4 0  0 1.4 0  0.2000000000000002 1.4 0  0.3999999999999999 1.4 0  0.6000000000000001 1.4 0  0.7999999999999998 1.4 0  1 1.4 0  1.2 1.4 0  1.4 1.4 0  1.6 1.4 0  1.8 1.4 0  2 1.4 0  -2 1.6 0  -1.8 1.6 0  -1.6 1.6 0  -1.4 1.6 0  -1.2 1.6 0  -1 1.6 0  -0.8 1.6 0  -0.6000000000000001 1.6 0  -0.3999999999999999 1.6 0  -0.2 1.6 0  0 1.6 0  0.2000000000000002 1.6 0  0.3999999999999999 1.6 0  0.6000000000000001 1.6 0  0.7999999999999998 1.6 0  1 1.6 0  1.2 1.6 0  1.4 1.6 0  1.6 1.6 0  1.8 1.6 0  2 1.6 0  -2 1.8 0  -1.8 1.8 0  -1.6 1.8 0  -1.4 1.8 0  -1.2 1.8 0  -1 1.8 0  -0.8 1.8 0  -0.6000000000000001 1.8 0  -0.3999999999999999 1.8 0  -0.2 1.8 0  0 1.8 0  0.2000000000000002 1.8 0  0.3999999999999999 1.8 0  0.6000000000000001 1.8 0  0.7999999999999998 1.8 0  1 1.8 0  1.2 1.8 0  1.4 1.8 0  1.6 1.8 0  1.8 1.8 0  2 1.8 0  -2 2 0  -1.8 2 0  -1.6 2 0  -1.4 2 0  -1.2 2 0  -1 2 0  -0.8 2 0  -0.6000000000000001 2 0  -0.3999999999999999 2 0  -0.2 2 0  0 2 0  0.2000000000000002 2 0  0.3999999999999999 2 0  0.6000000000000001 2 0  0.7999999999999998 2 0  1 2 0  1.2 2 0  1.4 2 0  1.6 2 0  1.8 2 0  2 2 0  </DataArray>
</Points>
<Cells>
[...]
<PointData  Scalars="f_8"> 
<DataArray  type="Float64"  Name="f_8"  format="ascii">8.2688162139332291e-02  8.1299407608893801e-02  7.7916278055789309e-02  7.2778002193571223e-02  6.6251810415469764e-02  5.8782800846901927e-02  5.0840323092210996e-02  4.2868357226471206e-02  3.5246151544531104e-02  2.8262982661544939e-02  2.2108061131118309e-02  1.6874030646088969e-02  1.2570704018745455e-02  9.1448662395523794e-03  6.5021009090821371e-03  4.5274115583722263e-03  3.1025772909127397e-03  2.1193819253442427e-03  1.4888514581855446e-03  1.1473031560342618e-03  1.0603349872601790e-03  8.2166411799079589e-02  8.1068022636169121e-02  7.7883998191539391e-02  7.2877039358945586e-02  6.6427778422000955e-02  5.8991078432509350e-02  5.1045539884380479e-02  4.3044870224467922e-02  3.5378256080714786e-02  2.8344285987058987e-02  2.2139955522681765e-02  1.6863526895977213e-02  1.2528027988184644e-02  9.0812088142162503e-03  6.4277937099184636e-03  4.4506318071700296e-03  3.0285104733405190e-03  2.0496145002867790e-03  1.4206252066887848e-03  1.0721060524661210e-03  9.6106559968254721e-04  8.2119111373525691e-02  8.1041735965010950e-02  7.7895915107784527e-02  7.2926361359130443e-02  6.6503869616455852e-02  5.9079148535077647e-02  5.1130727169543269e-02  4.3115006619456019e-02  3.5425406300551750e-02  2.8365173690426907e-02  2.2135488982189012e-02  1.6837725670816674e-02  1.2486683665979078e-02  9.0305771985380884e-03  6.3735297325620234e-03  4.3970722065110436e-03  2.9783143225779311e-03  2.0037128673724759e-03  1.3784254946997004e-03  1.0319577594670240e-03  9.2114379879891181e-04  8.2142554936187454e-02  8.1067622871164938e-02  7.7927387926324948e-02  7.2963475222254687e-02  6.6543889311391935e-02  5.9117670550558048e-02  5.1163021455368406e-02  4.3137183105215728e-02  3.5435177376372959e-02  2.8362132287779535e-02  2.2120946307190307e-02  1.6814237840188321e-02  1.2457433065097568e-02  8.9987647418620764e-03  6.3418915990343314e-03  4.3675778499401097e-03  2.9520496879438729e-03  1.9809162674161453e-03  1.3586281072270115e-03  1.0141826143904306e-03  9.0412476655798676e-04  8.2164997757221442e-02  8.1090147153254008e-02  7.7949703857396593e-02  7.2984840110203300e-02  6.6563109773022391e-02  5.9133331610545667e-02  5.1173825578664019e-02  4.3142271432805974e-02  3.5434336081655020e-02  2.8355838052171758e-02  2.2110257673611047e-02  1.6800578973501398e-02  1.2442335218219389e-02  8.9836280458320192e-03  6.3278113781713944e-03  4.3552543589770168e-03  2.9417766096745705e-03  1.9726274206776731e-03  1.3519757834124977e-03  1.0086236101062760e-03  8.9899826585688038e-04  8.2175734808078840e-02  8.1100719095623761e-02  7.7959646706302704e-02  7.2993660239749736e-02  6.6570314523665255e-02  5.9138495492530890e-02  5.1176670728343907e-02  4.3142733331879290e-02  3.5432590668168389e-02  2.8352279965409771e-02  2.2105435188216154e-02  1.6795103388760800e-02  1.2436787596821947e-02  8.9784837899255631e-03  6.3233952955550187e-03  4.3517290232698170e-03  2.9391582591790557e-03  1.9708185272272129e-03  1.3508023824125629e-03  1.0078678485153708e-03  8.9842101464099810e-04  8.2179088639751124e-02  8.1103974813639526e-02  7.7962610461682028e-02  7.2996153440658323e-02  6.6572191321595545e-02  5.9139661890391201e-02  5.1177100546569793e-02  4.3142475401002002e-02  3.5431763389479974e-02  2.8351053017563521e-02  2.2104002095464852e-02  1.6793651344068343e-02  1.2435471437619345e-02  8.9774093690068446e-03  6.3226144694072065e-03  4.3512452432055634e-03  2.9389393158528285e-03  1.9708119249970371e-03  1.3509491229925284e-03  1.0081116961850678e-03  8.9871205186559783e-04  8.2179727829070404e-02  8.1104577559426572e-02  7.7963130469949404e-02  7.2996552578626417e-02  6.6572444628799077e-02  5.9139761395205936e-02  5.1177056880818902e-02  4.3142316411696836e-02  3.5431529593414848e-02  2.8350790628439374e-02  2.2103755121648690e-02  1.6793454584005520e-02  1.2435345948765818e-02  8.9773612537623233e-03  6.3226368868318098e-03  4.3513227445825010e-03  2.9390531535950903e-03  1.9709449707499345e-03  1.3510893641067137e-03  1.0082537805982321e-03  8.9885684005366776e-04  8.2179767410316948e-02  8.1104607663774420e-02  7.7963145854825458e-02  7.2996550244833772e-02  6.6572424516725653e-02  5.9139726615162820e-02  5.1177013347906350e-02  4.3142271870165061e-02  3.5431492177650854e-02  2.8350767264000078e-02  2.2103750152899344e-02  1.6793468978929783e-02  1.2435377278208584e-02  8.9774044238302344e-03  6.3226853988095581e-03  4.3513701375388070e-03  2.9390942835092835e-03  1.9709768805077190e-03  1.3511116486070048e-03  1.0082684878363879e-03  8.9886802672600806e-04  8.2179755338728080e-02  8.1104594145197412e-02  7.7963131246890582e-02  7.2996535265826362e-02  6.6572410213161987e-02  5.9139714242426339e-02  5.1177004170997409e-02  4.3142266916151584e-02  3.5431491994152513e-02  2.8350771748898038e-02  2.2103758511061177e-02  1.6793479830871032e-02  1.2435388901779060e-02  8.9774150688953190e-03  6.3226935926487069e-03  4.3513749044610511e-03  2.9390952338393473e-03  1.9709741691502536e-03  1.3511058445742198e-03  1.0082604185051984e-03  8.9885865710751238e-04  8.2179753460217594e-02  8.1104592223966140e-02  7.7963129450031005e-02  7.2996533781300180e-02  6.6572409218198680e-02  5.9139713867088203e-02  5.1177004463650026e-02  4.3142267819380124e-02  3.5431493339567487e-02  2.8350773276317996e-02  2.2103759911692375e-02  1.6793480806675573e-02  1.2435389226790324e-02  8.9774146355852090e-03  6.3226924292489536e-03  4.3513731569941967e-03  2.9390931170529579e-03  1.9709719000273293e-03  1.3511035774805742e-03  1.0082582007973526e-03  8.9885641857424077e-04  8.2179753991394530e-02  8.1104592707827244e-02  7.7963130013821491e-02  7.2996534506970620e-02  6.6572410129829465e-02  5.9139714930555629e-02  5.1177005597159139e-02  4.3142268912180176e-02  3.5431494275216927e-02  2.8350773956273913e-02  2.2103760274885691e-02  1.6793480841308318e-02  1.2435388971995061e-02  8.9774141727045533e-03  6.3226918648687349e-03  4.3513726017974739e-03  2.9390926653799277e-03  1.9709716143989655e-03  1.3511034804908673e-03  1.0082582744286481e-03  8.9885660908806434e-04  8.2179740295729220e-02  8.1104579964883808e-02  7.7963119109355161e-02  7.2996526025566888e-02  6.6572404360913162e-02  5.9139711896270791e-02  5.1177005093535441e-02  4.3142270558823442e-02  3.5431497571382163e-02  2.8350778341368933e-02  2.2103765189562353e-02  1.6793485783006594e-02  1.2435393538036110e-02  8.9774180857677376e-03  6.3226949794297355e-03  4.3513748942034178e-03  2.9390942128573916e-03  1.9709725683981503e-03  1.3511040376494336e-03  1.0082586455366490e-03  8.9885698464618551e-04  8.2179683589959626e-02  8.1104527986467653e-02  7.7963071309417611e-02  7.2996481769634608e-02  6.6572363361550105e-02  5.9139674422164584e-02  5.1176971929890430e-02  4.3142242762868134e-02  3.5431476122630007e-02  2.8350763808861933e-02  2.2103757520155812e-02  1.6793484265112801e-02  1.2435396934999189e-02  8.9774248841371761e-03  6.3227036735113169e-03  4.3513842310388138e-03  2.9391033432840845e-03  1.9709810785812644e-03  1.3511118622691850e-03  1.0082658847023985e-03  8.9886366218406134e-04  8.2179807155386198e-02  8.1104650397932673e-02  7.7963162606923819e-02  7.2996518043047992e-02  6.6572330066199226e-02  5.9139568080752679e-02  5.1176799907835878e-02  4.3142021173514664e-02  3.5431226355101222e-02  2.8350508497607237e-02  2.2103516859611861e-02  1.6793273391799431e-02  1.2435224735707431e-02  8.9772941812928872e-03  6.3226124171261349e-03  4.3513271659803157e-03  2.9390736289731348e-03  1.9709714734698620e-03  1.3511152847756830e-03  1.0082753679415142e-03  8.9887189149363855e-04  8.2181782599142050e-02  8.1106547374792531e-02  7.7964810306910118e-02  7.2997773674795124e-02  6.6573093173616080e-02  5.9139791599296790e-02  5.1176494826569038e-02  4.3141252663173812e-02  3.5430101464483353e-02  2.8349157905928485e-02  2.2102074696833791e-02  1.6791859309987535e-02  1.2433931343254793e-02  8.9761811773921719e-03  6.3217069565457583e-03  4.3506286785051917e-03  2.9385607697704889e-03  1.9706090643881154e-03  1.3508598050715052e-03  1.0080784740796520e-03  8.9868231397620207e-04  8.2190802107327973e-02  8.1115262626556356e-02  7.7972717666250010e-02  7.3004397382747513e-02  6.6578024950979073e-02  5.9142746235979080e-02  5.1177360218459464e-02  4.3140114323526872e-02  3.5427231268511696e-02  2.8344969100551575e-02  2.2097055057602746e-02  1.6786498892676773e-02  1.2428660178485712e-02  8.9713270623520136e-03  6.3174766955016327e-03  4.3471100713855775e-03  2.9357388733484311e-03  1.9683892254734416e-03  1.3490912695926869e-03  1.0065750523651066e-03  8.9723949620147431e-04  8.2214299818725120e-02  8.1138398733754932e-02  7.7994907697947050e-02  7.3024708662514232e-02  6.6595264081998576e-02  5.9155709275403826e-02  5.1185122944043975e-02  4.3142257159693234e-02  3.5423937027187657e-02  2.8336981423694708e-02  2.2085526194411356e-02  1.6772778510870754e-02  1.2414080569453602e-02  8.9570283971228092e-03  6.3042961769808649e-03  4.3355384839948614e-03  2.9259328209462854e-03  1.9602199806842292e-03  1.3422114566314725e-03  1.0004900249378241e-03  8.9137761178773804e-04  8.2246080047248440e-02  8.1172235153503178e-02  7.8033038580177377e-02  7.3066396234746853e-02  6.6637393245033830e-02  5.9193987625211102e-02  5.1215344886768814e-02  4.3161301087005728e-02  3.5430329727659020e-02  2.8331003698170498e-02  2.2068940053346957e-02  1.6748318448592554e-02  1.2384866344640364e-02  8.9260324059109563e-03  6.2739506150801981e-03  4.3075140478025147e-03  2.9010766957052237e-03  1.9386151871219322e-03  1.3233143843494480e-03  9.8331442281904139e-04  8.7471260303137715e-04  8.2213264595655297e-02  8.1161624790997561e-02  7.8059187415109893e-02  7.3127130011181193e-02  6.6721534281080824e-02  5.9286783238197187e-02  5.1302366050660873e-02  4.3231049963248253e-02  3.5475636969362088e-02  2.8349333435772901e-02  2.2061824751470324e-02  1.6720232518139623e-02  1.2341873095406370e-02  8.8744966620131344e-03  6.2195179464892844e-03  4.2544481934919352e-03  2.8519503582886676e-03  1.8942892859892266e-03  1.2831315688618065e-03  9.4548496175880835e-04  8.3700226082129706e-04  8.1699416826742671e-02  8.0933597716620759e-02  7.8029169760669329e-02  7.3229500728042615e-02  6.6902861778133579e-02  5.9502342778331378e-02  5.1515915452304627e-02  4.3415693408854782e-02  3.5614434617867535e-02  2.8434993326963153e-02  2.2095351448786604e-02  1.6708777576077485e-02  1.2296219306412353e-02  8.8066248049092147e-03  6.1405942746522993e-03  4.1733908061511570e-03  2.7745365509903638e-03  1.8225879225465505e-03  1.2148894916893514e-03  8.7293684038251536e-04  7.4434553198312659e-04  </DataArray> 
</PointData> 
</Piece>
</UnstructuredGrid>
</VTKFile>