<?xml version="1.0"?>
<VTKFile type="UnstructuredGrid"  version="0.1"  >
<UnstructuredGrid>
<Piece  NumberOfPoints="441" NumberOfCells="800">
<Points>
<DataArray  type="Float64"  NumberOfComponents="3"  format="ascii">-2 -2 0  -1.8 -2 0  -1.6 -2 0  -1.4 -2 0  -1.2 -2 0  -1 -2 0  -0.8 -2 0  -0.6000000000000001 -2 0  -0.3999999999999999 -2 0  -0.2 -2 0  0 -2 0  0.2000000000000002 -2 0  0.3999999999999999 -2 0  0.6000000000000001 -2 0  0.7999999999999998 -2 0  1 -2 0  1.2 -2 0  1.4 -2 0  1.6 -2 0  1.8 -2 0  2 -2 0  -2 -1.8 0  -1.8 -1.8 0  -1.6 -1.8 0  -1.4 -1.8 0  -1.2 -1.8 0  -1 -1.8 0  -0.8 -1.8 0  -0.6000000000000001 -1.8 0  -0.3999999999999999 -1.8 0  -0.2 -1.8 0  0 -1.8 0  0.2000000000000002 -1.8 0  0.3999999999999999 -1.8 0  0.6000000000000001 -1.8 0  0.7999999999999998 -1.8 0  1 -1.8 0  1.2 -1.8 0  1.4 -1.8 0  1.6 -1.8 0  1.8 -1.8 0  2 -1.8 0  -2 -1.6 0  -1.8 -1.6 0  -1.6 -1.6 0  -1.4 -1.6 0  -1.2 -1.6 0  -1 -1.6 0  -0.8 -1.6 0  -0.6000000000000001 -1.6 0  -0.3999999999999999 -1.6 0  -0.2 -1.6 0  0 -1.6 0  0.2000000000000002 -1.6 0  0.3999999999999999 -1.6 0  0.6000000000000001 -1.6 0  0.7999999999999998 -1.6 0  1 -1.6 0  1.2 -1.6 0  1.4 -1.6 0  1.6 -1.6 0  1.8 -1.6 0  2 -1.6 0  -2 -1.4 0  -1.8 -1.4 0  -1.6 -1.4 0  -1.4 -1.4 0  -1.2 -1.4 0  -1 -1.4 0  -0.8 -1.4 0  -0.6000000000000001 -1.4 0  -0.3999999999999999 -1.4 0  -0.2 -1.4 0  0 -1.4 0  0.2000000000000002 -1.4 0  0.3999999999999999 -1.4 0  0.6000000000000001 -1.4 0  0.7999999999999998 -1.4 0  1 -1.4 0  1.2 -1.4 0  1.4 -1.4 0  1.6 -1.4 0  1.8 -1.4 0  2 -1.4 0  -2 -1.2 0  -1.8 -1.2 0  -1.6 -1.2 0  -1.4 -1.2 0  -1.2 -1.2 0  -1 -1.2 0  -0.8 -1.2 0  -0.6000000000000001 -1.2 0  -0.3999999999999999 -1.2 0  -0.2 -1.2 0  0 -1.2 0  0.2000000000000002 -1.2 0  0.3999999999999999 -1.2 0  0.6000000000000001 -1.2 0  0.7999999999999998 -1.2 0  1 -1.2 0  1.2 -1.2 0  1.4 -1.2 0  1.6 -1.2 0  1.8 -1.2 0  2 -1.2 0  -2 -1 0  -1.8 -1 0  -1.6 -1 0  -1.4 -1 0  -1.2 -1 0  -1 -1 0  -0.8 -1 0  -0.6000000000000001 -1 0  -0.3999999999999999 -1 0  -0.2 -1 0  0 -1 0  0.2000000000000002 -1 0  0.3999999999999999 -1 0  0.6000000000000001 -1 0  0.7999999999999998 -1 0  1 -1 0  1.2 -1 0  1.4 -1 0  1.6 -1 0  1.8 -1 0  2 -1 0  -2 -0.8 0  -1.8 -0.8 0  -1.6 -0.8 0  -1.4 -0.8 0  -1.2 -0.8 0  -1 -0.8 0  -0.8 -0.8 0  -0.6000000000000001 -0.8 0  -0.3999999999999999 -0.8 0  -0.2 -0.8 0  0 -0.8 0  0.2000000000000002 -0.8 0  0.3999999999999999 -0.8 0  0.6000000000000001 -0.8 0  0.7999999999999998 -0.8 0  1 -0.8 0  1.2 -0.8 0  1.4 -0.8 0  1.6 -0.8 0  1.8 -0.8 0  2 -0.8 0  -2 -0.6000000000000001 0  -1.8 -0.6000000000000001 0  -1.6 -0.6000000000000001 0  -1.4 -0.6000000000000001 0  -1.2 -0.6000000000000001 0  -1 -0.6000000000000001 0  -0.8 -0.6000000000000001 0  -0.6000000000000001 -0.6000000000000001 0  -0.3999999999999999 -0.6000000000000001 0  -0.2 -0.6000000000000001 0  0 -0.6000000000000001 0  0.2000000000000002 -0.6000000000000001 0  0.3999999999999999 -0.6000000000000001 0  0.6000000000000001 -0.6000000000000001 0  0.7999999999999998 -0.6000000000000001 0  1 -0.6000000000000001 0  1.2 -0.6000000000000001 0  1.4 -0.6000000000000001 0  1.6 -0.6000000000000001 0  1.8 -0.6000000000000001 0  2 -0.6000000000000001 0  -2 -0.3999999999999999 0  -1.8 -0.3999999999999999 0  -1.6 -0.3999999999999999 0  -1.4 -0.3999999999999999 0  -1.2 -0.3999999999999999 0  -1 -0.3999999999999999 0  -0.8 -0.3999999999999999 0  -0.6000000000000001 -0.3999999999999999 0  -0.3999999999999999 -0.3999999999999999 0  -0.2 -0.3999999999999999 0  0 -0.3999999999999999 0  0.2000000000000002 -0.3999999999999999 0  0.3999999999999999 -0.3999999999999999 0  0.6000000000000001 -0.3999999999999999 0  0.7999999999999998 -0.3999999999999999 0  1 -0.3999999999999999 0  1.2 -0.3999999999999999 0  1.4 -0.3999999999999999 0  1.6 -0.3999999999999999 0  1.8 -0.3999999999999999 0  2 -0.3999999999999999 0  -2 -0.2 0  -1.8 -0.2 0  -1.6 -0.2 0  -1.4 -0.2 0  -1.2 -0.2 0  -1 -0.2 0  -0.8 -0.2 0  -0.6000000000000001 -0.2 0  -0.3999999999999999 -0.2 0  -0.2 -0.2 0  0 -0.2 0  0.2000000000000002 -0.2 0  0.3999999999999999 -0.2 0  0.6000000000000001 -0.2 0  0.7999999999999998 -0.2 0  1 -0.2 0  1.2 -0.2 0  1.4 -0.2 0  1.6 -0.2 0  1.8 -0.2 0  2 -0.2 0  -2 0 0  -1.8 0 0  -1.6 0 0  -1.4 0 0  -1.2 0 0  -1 0 0  -0.8 0 0  -0.6000000000000001 0 0  -0.3999999999999999 0 0  -0.2 0 0  0 0 0  0.2000000000000002 0 0  0.3999999999999999 0 0  0.6000000000000001 0 0  0.7999999999999998 0 0  1 0 0  1.2 0 0  1.4 0 0  1.6 0 0  1.8 0 0  2 0 0  -2 0.2000000000000002 0  -1.8 0.2000000000000002 0  -1.6 0.2000000000000002 0  -1.4 0.2000000000000002 0  -1.2 0.2000000000000002 0  -1 0.2000000000000002 0  -0.8 0.2000000000000002 0  -0.6000000000000001 0.2000000000000002 0  -0.3999999999999999 0.2000000000000002 0  -0.2 0.2000000000000002 0  0 0.2000000000000002 0  0.2000000000000002 0.2000000000000002 0  0.3999999999999999 0.2000000000000002 0  0.6000000000000001 0.2000000000000002 0  0.7999999999999998 0.2000000000000002 0  1 0.2000000000000002 0  1.2 0.2000000000000002 0  1.4 0.2000000000000002 0  1.6 0.2000000000000002 0  1.8 0.2000000000000002 0  2 0.2000000000000002 0  -2 0.3999999999999999 0  -1.8 0.3999999999999999 0  -1.6 0.3999999999999999 0  -1.4 0.3999999999999999 0  -1.2 0.3999999999999999 0  -1 0.3999999999999999 0  -0.8 0.3999999999999999 0  -0.6000000000000001 0.3999999999999999 0  -0.3999999999999999 0.3999999999999999 0  -0.2 0.3999999999999999 0  0 0.3999999999999999 0  0.2000000000000002 0.3999999999999999 0  0.3999999999999999 0.3999999999999999 0  0.6000000000000001 0.3999999999999999 0  0.7999999999999998 0.3999999999999999 0  1 0.3999999999999999 0  1.2 0.3999999999999999 0  1.4 0.3999999999999999 0  1.6 0.3999999999999999 0  1.8 0.3999999999999999 0  2 0.3999999999999999 0  -2 0.6000000000000001 0  -1.8 0.6000000000000001 0  -1.6 0.6000000000000001 0  -1.4 0.6000000000000001 0  -1.2 0.6000000000000001 0  -1 0.6000000000000001 0  -0.8 0.6000000000000001 0  -0.6000000000000001 0.6000000000000001 0  -0.3999999999999999 0.6000000000000001 0  -0.2 0.6000000000000001 0  0 0.6000000000000001 0  0.2000000000000002 0.6000000000000001 0  0.3999999999999999 0.6000000000000001 0  0.6000000000000001 0.6000000000000001 0  0.7999999999999998 0.6000000000000001 0  1 0.6000000000000001 0  1.2 0.6000000000000001 0  1.4 0.6000000000000001 0  1.6 0.6000000000000001 0  1.8 0.6000000000000001 0  2 0.6000000000000001 0  -2 0.7999999999999998 0  -1.8 0.7999999999999998 0  -1.6 0.7999999999999998 0  -1.4 0.7999999999999998 0  -1.2 0.7999999999999998 0  -1 0.7999999999999998 0  -0.8 0.7999999999999998 0  -0.6000000000000001 0.7999999999999998 0  -0.3999999999999999 0.7999999999999998 0  -0.2 0.7999999999999998 0  0 0.7999999999999998 0  0.2000000000000002 0.7999999999999998 0  0.3999999999999999 0.7999999999999998 0  0.6000000000000001 0.7999999999999998 0  0.7999999999999998 0.7999999999999998 0  1 0.7999999999999998 0  1.2 0.7999999999999998 0  1.4 0.7999999999999998 0  1.6 0.7999999999999998 0  1.8 0.7999999999999998 0  2 0.7999999999999998 0  -2 1 0  -1.8 1 0  -1.6 1 0  -1.4 1 0  -1.2 1 0  -1 1 0  -0.8 1 0  -0.6000000000000001 1 0  -0.3999999999999999 1 0  -0.2 1 0  0 1 0  0.2000000000000002 1 0  0.3999999999999999 1 0  0.6000000000000001 1 0  0.7999999999999998 1 0  1 1 0  1.2 1 0  1.4 1 0  1.6 1 0  1.8 1 0  2 1 0  -2 1.2 0  -1.8 1.2 0  -1.6 1.2 0  -1.4 1.2 0  -1.2 1.2 0  -1 1.2 0  -0.8 1.2 0  -0.6000000000000001 1.2 0  -0.3999999999999999 1.2 0  -0.2 1.2 0  0 1.2 0  0.2000000000000002 1.2 0  0.3999999999999999 1.2 0  0.6000000000000001 1.2 0  0.7999999999999998 1.2 0  1 1.2 0  1.2 1.2 0  1.4 1.2 0  1.6 1.2 0  1.8 1.2 0  2 1.2 0  -2 1.4 0  -1.8 1.4 0  -1.6 1.4 0  -1.4 1.4 0  -1.2 1.4 0  -1 1.4 0  -0.8 1.4 0  -0.6000000000000001 1.4 0  -0.3999999999999999 1.4 0  -0.2 1.4 0  0 1.4 0  0.2000000000000002 1.4 0  0.3999999999999999 1.4 0  0.6000000000000001 1.4 0  0.7999999999999998 1.4 0  1 1.4 0  1.2 1.4 0  1.4 1.4 0  1.6 1.4 0  1.8 1.4 0  2 1.4 0  -2 1.6 0  -1.8 1.6 0  -1.6 1.6 0  -1.4 1.6 0  -1.2 1.6 0  -1 1.6 0  -0.8 1.6 0  -0.6000000000000001 1.6 0  -0.3999999999999999 1.6 0  -0.2 1.6 0  0 1.6 0  0.2000000000000002 1.6 0  0.3999999999999999 1.6 0  0.6000000000000001 1.6 0  0.7999999999999998 1.6 0  1 1.6 0  1.2 1.6 0  1.4 1.6 0  1.6 1.6 0  1.8 1.6 0  2 1.6 0  -2 1.8 0  -1.8 1.8 0  -1.6 1.8 0  -1.4 1.8 0  -1.2 1.8 0  -1 1.8 0  -0.8 1.8 0  -0.6000000000000001 1.8 0  -0.3999999999999999 1.8 0  -0.2 1.8 0  0 1.8 0  0.2000000000000002 1.8 0  0.3999999999999999 1.8 0  0.6000000000000001 1.8 0  0.7999999999999998 1.8 0  1 1.8 0  1.2 1.8 0  1.4 1.8 0  1.6 1.8 0  1.8 1.8 0  2 1.8 0  -2 2 0  -1.8 2 0  -1.6 2 0  -1.4 2 0  -1.2 2 0  -1 2 0  -0.8 2 0  -0.6000000000000001 2 0  -0.3999999999999999 2 0  -0.2 2 0  0 2 0  0.2000000000000002 2 0  0.3999999999999999 2 0  0.6000000000000001 2 0  0.7999999999999998 2 0  1 2 0  1.2 2 0  1.4 2 0  1.6 2 0  1.8 2 0  2 2 0  </DataArray>
</Points>
<Cells>
[...]
<PointData  Scalars="f_8"> 
<DataArray  type="Float64"  Name="f_8"  format="ascii">3.5721488863970058e-02  3.5726378387900548e-02  3.5728423545196432e-02  3.5729491974253562e-02  3.5730136138444779e-02  3.5730557901215682e-02  3.5730848545713872e-02  3.5731057315594672e-02  3.5731214597234814e-02  3.5731341339277821e-02  3.5731453661013490e-02  3.5731565601257807e-02  3.5731691195080399e-02  3.5731846546857148e-02  3.5732052565591109e-02  3.5732339539516052e-02  3.5732756472285687e-02  3.5733394056728485e-02  3.5734452751650825e-02  3.5736482454670024e-02  3.5741353665858545e-02  3.5756906456120320e-02  3.5758037778305676e-02  3.5759133564498481e-02  3.5759915718353970e-02  3.5760452184297173e-02  3.5760823547731357e-02  3.5761086083651000e-02  3.5761276989601909e-02  3.5761421641725903e-02  3.5761538470121645e-02  3.5761642051415216e-02  3.5761745237157881e-02  3.5761860874672105e-02  3.5762003525554004e-02  3.5762191586761943e-02  3.5762450371453827e-02  3.5762816977528283e-02  3.5763347592517862e-02  3.5764123028748429e-02  3.5765212831910538e-02  3.5766343077449303e-02  3.5848711440345550e-02  3.5848839280699721e-02  3.5849254609389480e-02  3.5849669329933477e-02  3.5850006634059003e-02  3.5850263072390066e-02  3.5850454054522897e-02  3.5850596868939127e-02  3.5850706535497733e-02  3.5850795513973861e-02  3.5850874421721732e-02  3.5850952949085843e-02  3.5851040787949796e-02  3.5851148561460239e-02  3.5851288744794159e-02  3.5851476399768462e-02  3.5851728931548428e-02  3.5852062063525959e-02  3.5852473114609387e-02  3.5852886830962882e-02  3.5853017170534247e-02  3.5995305836571373e-02  3.5995078235981970e-02  3.5995101307730787e-02  3.5995221319665899e-02  3.5995357984244573e-02  3.5995479582753738e-02  3.5995577926421281e-02  3.5995654482355276e-02  3.5995714050269703e-02  3.5995762235785100e-02  3.5995804626190404e-02  3.5995846676929982e-02  3.5995893852691203e-02  3.5995951772023464e-02  3.5996026106156646e-02  3.5996121781495069e-02  3.5996240503569414e-02  3.5996374515958544e-02  3.5996492818028490e-02  3.5996516104802291e-02  3.5996291502115009e-02  3.6192525038878889e-02  3.6192121581976731e-02  3.6191911439977978e-02  3.6191818708349976e-02  3.6191786251728371e-02  3.6191780222932762e-02  3.6191783255516495e-02  3.6191787546683563e-02  3.6191790275590260e-02  3.6191791022716191e-02  3.6191790436962613e-02  3.6191789567999344e-02  3.6191789480446816e-02  3.6191790871939487e-02  3.6191793417770152e-02  3.6191794460118172e-02  3.6191786459053417e-02  3.6191752442783914e-02  3.6191659090596504e-02  3.6191449827253371e-02  3.6191049093600221e-02  3.6434718595134356e-02  3.6434204990611556e-02  3.6433846295273319e-02  3.6433603519844475e-02  3.6433439159837960e-02  3.6433324864236234e-02  3.6433241558622258e-02  3.6433177094628143e-02  3.6433123819126279e-02  3.6433076750616494e-02  3.6433032357476892e-02  3.6432987743086426e-02  3.6432940027802480e-02  3.6432885733938263e-02  3.6432819979653849e-02  3.6432735270437090e-02  3.6432619688757134e-02  3.6432454465451104e-02  3.6432211599617376e-02  3.6431853897119851e-02  3.6431342506866415e-02  3.6715145932475171e-02  3.6714556945535277e-02  3.6714099842907452e-02  3.6713752794907697e-02  3.6713490883017931e-02  3.6713291729905423e-02  3.6713137394076389e-02  3.6713014183900397e-02  3.6712911714476409e-02  3.6712821876412338e-02  3.6712737946201036e-02  3.6712653854815848e-02  3.6712563548698472e-02  3.6712460352589661e-02  3.6712336243062672e-02  3.6712180964805836e-02  3.6711981001687752e-02  3.6711718624416564e-02  3.6711371674083136e-02  3.6710915400726844e-02  3.6710328027523699e-02  3.7026226524868595e-02  3.7025587406697105e-02  3.7025066520383301e-02  3.7024650227756493e-02  3.7024320995773928e-02  3.7024060985696550e-02  3.7023854000168381e-02  3.7023686113582990e-02  3.7023545548144285e-02  3.7023422217428541e-02  3.7023307167710212e-02  3.7023192011322786e-02  3.7023068371976144e-02  3.7022927331023719e-02  3.7022758863109101e-02  3.7022551279296705e-02  3.7022290768685913e-02  3.7021961264344184e-02  3.7021545051660575e-02  3.7021024682907938e-02  3.7020386535039515e-02  3.7359762565561346e-02  3.7359095201346330e-02  3.7358537964514861e-02  3.7358081214087305e-02  3.7357711539178398e-02  3.7357414065971192e-02  3.7357174086038676e-02  3.7356977914680407e-02  3.7356813155510517e-02  3.7356668590733867e-02  3.7356533867231215e-02  3.7356399085455648e-02  3.7356254351609941e-02  3.7356089330271451e-02  3.7355892834276566e-02  3.7355652511251454e-02  3.7355354732020778e-02  3.7354984848960868e-02  3.7354528042558136e-02  3.7353970934062612e-02  3.7353303878877794e-02  3.7707159403969688e-02  3.7706484192331864e-02  3.7705914471018627e-02  3.7705442458707258e-02  3.7705056832470517e-02  3.7704744380057685e-02  3.7704491365985610e-02  3.7704284417811533e-02  3.7704110947896996e-02  3.7703959217856214e-02  3.7703818166312401e-02  3.7703677100380584e-02  3.7703525326607833e-02  3.7703351782137365e-02  3.7703144726777334e-02  3.7702891571441959e-02  3.7702578942949684e-02  3.7702193105274534e-02  3.7701720844047729e-02  3.7701150829721704e-02  3.7700475266687294e-02  3.8059646847722201e-02  3.8058983233961341e-02  3.8058422930809695e-02  3.8057958730874662e-02  3.8057579999323528e-02  3.8057274123289436e-02  3.8057027779231097e-02  3.8056827809876841e-02  3.8056661683721051e-02  3.8056517609266864e-02  3.8056384406474020e-02  3.8056251231369520e-02  3.8056107233039337e-02  3.8055941210691988e-02  3.8055741338676521e-02  3.8055495039236720e-02  3.8055189099805251e-02  3.8054810138096695e-02  3.8054345487209283e-02  3.8053784471892123e-02  3.8053119863507762e-02  3.8408498589654970e-02  3.8407865149354022e-02  3.8407334979317462e-02  3.8406900407735887e-02  3.8406550297019865e-02  3.8406271672021521e-02  3.8406051066532401e-02  3.8405875396792889e-02  3.8405732375445256e-02  3.8405610570420558e-02  3.8405499227392698e-02  3.8405387955225120e-02  3.8405266349968464e-02  3.8405123618627912e-02  3.8404948264368161e-02  3.8404727910095429e-02  3.8404449362114221e-02  3.8404099035118405e-02  3.8403663844315546e-02  3.8403132575061255e-02  3.8402497528627774e-02  3.8745245356212106e-02  3.8744659776305049e-02  3.8744179809423199e-02  3.8743796093000465e-02  3.8743495651448905e-02  3.8743264131160630e-02  3.8743087382416351e-02  3.8742952295508684e-02  3.8742847056638725e-02  3.8742761033632230e-02  3.8742684456270347e-02  3.8742607996325222e-02  3.8742522308014518e-02  3.8742417567597019e-02  3.8742283051452525e-02  3.8742106815406747e-02  3.8741875584235030e-02  3.8741575021647927e-02  3.8741190595846589e-02  3.8740709204733992e-02  3.8740121450977619e-02  3.9061876933775608e-02  3.9061356111560475e-02  3.9060946505366283e-02  3.9060635094541857e-02  3.9060405195915193e-02  3.9060239876826768e-02  3.9060123823205735e-02  3.9060043955276506e-02  3.9059989314140259e-02  3.9059950617096668e-02  3.9059919702302465e-02  3.9059888955739773e-02  3.9059850743010438e-02  3.9059796839271771e-02  3.9059717851192062e-02  3.9059602655577723e-02  3.9059437952629408e-02  3.9059208163774187e-02  3.9058896085023671e-02  3.9058484827263935e-02  3.9057961315886500e-02  3.9351028165492762e-02  3.9350588733021746e-02  3.9350271181840091e-02  3.9350055072478823e-02  3.9349917096816921e-02  3.9349836339039004e-02  3.9349796091541558e-02  3.9349783721033392e-02  3.9349789800845449e-02  3.9349807134039912e-02  3.9349829888257269e-02  3.9349852864463068e-02  3.9349870843196348e-02  3.9349877927802882e-02  3.9349866804223463e-02  3.9349827861871883e-02  3.9349748201920776e-02  3.9349610766066155e-02  3.9349394236200111e-02  3.9349074956681045e-02  3.9348632376459441e-02  3.9606143894929211e-02  3.9605803926421913e-02  3.9605604824519421e-02  3.9605510858963536e-02  3.9605487551873271e-02  3.9605508768010889e-02  3.9605556954329144e-02  3.9605621066735985e-02  3.9605694362877426e-02  3.9605772707180305e-02  3.9605853400763794e-02  3.9605934368974825e-02  3.9606013520059088e-02  3.9606088100081489e-02  3.9606153868354858e-02  3.9606203904784684e-02  3.9606226880935805e-02  3.9606204815495427e-02  3.9606110996326473e-02  3.9605910337605826e-02  3.9605566821529499e-02  3.9821616944945640e-02  3.9821401277212773e-02  3.9821358793411796e-02  3.9821421447572940e-02  3.9821537567953050e-02  3.9821676268788880e-02  3.9821821630661627e-02  3.9821966608295581e-02  3.9822108919073951e-02  3.9822248671415338e-02  3.9822387089808113e-02  3.9822525827670888e-02  3.9822666527701021e-02  3.9822810378977183e-02  3.9822957418247013e-02  3.9823105228982129e-02  3.9823246518280037e-02  3.9823364916778167e-02  3.9823428777324303e-02  3.9823385366566114e-02  3.9823165828632663e-02  3.9992889154388804e-02  3.9992847384714404e-02  3.9993027230496227e-02  3.9993293631474962e-02  3.9993574852745829e-02  3.9993841841485828e-02  3.9994086694213907e-02  3.9994310522044364e-02  3.9994517806502462e-02  3.9994714059460423e-02  3.9994904981437242e-02  3.9995096252083202e-02  3.9995293547907942e-02  3.9995502558934019e-02  3.9995728774148774e-02  3.9995976623468876e-02  3.9996247090211601e-02  3.9996531942572779e-02  3.9996801322153899e-02  3.9996981803665344e-02  3.9996936058695774e-02  4.0116488471411860e-02  4.0116763333329621e-02  4.0117291206199585e-02  4.0117822649673965e-02  4.0118288394222212e-02  4.0118683250590786e-02  4.0119019408166957e-02  4.0119311541250258e-02  4.0119572961418624e-02  4.0119815159264625e-02  4.0120048269049843e-02  4.0120281735197300e-02  4.0120525004568093e-02  4.0120788220535324e-02  4.0121082894773195e-02  4.0121422379006011e-02  4.0121821404468433e-02  4.0122292170337776e-02  4.0122829123917896e-02  4.0123361093290094e-02  4.0123632905536999e-02  4.0189901638991513e-02  4.0191017703425126e-02  4.0192122476517565e-02  4.0192970371468809e-02  4.0193611578143912e-02  4.0194110871731463e-02  4.0194514657339489e-02  4.0194854369225978e-02  4.0195152093505465e-02  4.0195424420985386e-02  4.0195684900037769e-02  4.0195945721750816e-02  4.0196219080600649e-02  4.0196518538154022e-02  4.0196860718886222e-02  4.0197267787497146e-02  4.0197771355683580e-02  4.0198418218286971e-02  4.0199273901151432e-02  4.0200389011035766e-02  4.0201508313212259e-02  4.0210846836713568e-02  4.0215031373501381e-02  4.0216920595321885e-02  4.0218009123485887e-02  4.0218743150668437e-02  4.0219287380800710e-02  4.0219717295512207e-02  4.0220074409309886e-02  4.0220385031465300e-02  4.0220667891748094e-02  4.0220937857856742e-02  4.0221208139564847e-02  4.0221491947182574e-02  4.0221804151896377e-02  4.0222163496037210e-02  4.0222596322674102e-02  4.0223144225522450e-02  4.0223882879543559e-02  4.0224977637258331e-02  4.0226878035981822e-02  4.0231100115256935e-02  </DataArray> 
</PointData> 
</Piece>
</UnstructuredGrid>
</VTKFile>