<?xml version="1.0"?>
<VTKFile type="UnstructuredGrid"  version="0.1"  >
<UnstructuredGrid>
<Piece  NumberOfPoints="441" NumberOfCells="800">
<Points>
<DataArray  type="Float64"  NumberOfComponents="3"  format="ascii">-2 -2 0  -1.8 -2 0  -1.6 -2 0  -1.4 -2 0  -1.2 -2 0  -1 -2 0  -0.8 -2 0  -0.6000000000000001 -2 0  -0.3999999999999999 -2 0  -0.2 -2 0  0 -2 0  0.2000000000000002 -2 0  0.3999999999999999 -2 0  0.6000000000000001 -2 0  0.7999999999999998 -2 0  1 -2 0  1.2 -2 0  1.4 -2 0  1.6 -2 0  1.8 -2 0  2 -2 0  -2 -1.8 0  -1.8 -1.8 0  -1.6 -1.8 0  -1.4 -1.8 0  -1.2 -1.8 0  -1 -1.8 0  -0.8 -1.8 0  -0.6000000000000001 -1.8 0  -0.3999999999999999 -1.8 0  -0.2 -1.8 0  0 -1.8 0  0.2000000000000002 -1.8 0  0.3999999999999999 -1.8 0  0.6000000000000001 -1.8 0  0.7999999999999998 -1.8 0  1 -1.8 0  1.2 -1.8 0  1.4 -1.8 0  1.6 -1.8 0  1.8 -1.8 0  2 -1.8 0  -2 -1.6 0  -1.8 -1.6 0  -1.6 -1.6 0  -1.4 -1.6 0  -1.2 -1.6 0  -1 -1.6 0  -0.8 -1.6 0  -0.6000000000000001 -1.6 0  -0.3999999999999999 -1.6 0  -0.2 -1.6 0  0 -1.6 0  0.2000000000000002 -1.6 0  0.3999999999999999 -1.6 0  0.6000000000000001 -1.6 0  0.7999999999999998 -1.6 0  1 -1.6 0  1.2 -1.6 0  1.4 -1.6 0  1.6 -1.6 0  1.8 -1.6 0  2 -1.6 0  -2 -1.4 0  -1.8 -1.4 0  -1.6 -1.4 0  -1.4 -1.4 0  -1.2 -1.4 0  -1 -1.4 0  -0.8 -1.4 0  -0.6000000000000001 -1.4 0  -0.3999999999999999 -1.4 0  -0.2 -1.4 0  0 -1.4 0  0.2000000000000002 -1.4 0  0.3999999999999999 -1.4 0  0.6000000000000001 -1.4 0  0.7999999999999998 -1.4 0  1 -1.4 0  1.2 -1.4 0  1.4 -1.4 0  1.6 -1.4 0  1.8 -1.4 0  2 -1.4 0  -2 -1.2 0  -1.8 -1.2 0  -1.6 -1.2 0  -1.4 -1.2 0  -1.2 -1.2 0  -1 -1.2 0  -0.8 -1.2 0  -0.6000000000000001 -1.2 0  -0.3999999999999999 -1.2 0  -0.2 -1.2 0  0 -1.2 0  0.2000000000000002 -1.2 0  0.3999999999999999 -1.2 0  0.6000000000000001 -1.2 0  0.7999999999999998 -1.2 0  1 -1.2 0  1.2 -1.2 0  1.4 -1.2 0  1.6 -1.2 0  1.8 -1.2 0  2 -1.2 0  -2 -1 0  -1.8 -1 0  -1.6 -1 0  -1.4 -1 0  -1.2 -1 0  -1 -1 0  -0.8 -1 0  -0.6000000000000001 -1 0  -0.3999999999999999 -1 0  -0.2 -1 0  0 -1 0  0.2000000000000002 -1 0  0.3999999999999999 -1 0  0.6000000000000001 -1 0  0.7999999999999998 -1 0  1 -1 0  1.2 -1 0  1.4 -1 0  1.6 -1 0  1.8 -1 0  2 -1 0  -2 -0.8 0  -1.8 -0.8 0  -1.6 -0.8 0  -1.4 -0.8 0  -1.2 -0.8 0  -1 -0.8 0  -0.8 -0.8 0  -0.6000000000000001 -0.8 0  -0.3999999999999999 -0.8 0  -0.2 -0.8 0  0 -0.8 0  0.2000000000000002 -0.8 0  0.3999999999999999 -0.8 0  0.6000000000000001 -0.8 0  0.7999999999999998 -0.8 0  1 -0.8 0  1.2 -0.8 0  1.4 -0.8 0  1.6 -0.8 0  1.8 -0.8 0  2 -0.8 0  -2 -0.6000000000000001 0  -1.8 -0.6000000000000001 0  -1.6 -0.6000000000000001 0  -1.4 -0.6000000000000001 0  -1.2 -0.6000000000000001 0  -1 -0.6000000000000001 0  -0.8 -0.6000000000000001 0  -0.6000000000000001 -0.6000000000000001 0  -0.3999999999999999 -0.6000000000000001 0  -0.2 -0.6000000000000001 0  0 -0.6000000000000001 0  0.2000000000000002 -0.6000000000000001 0  0.3999999999999999 -0.6000000000000001 0  0.6000000000000001 -0.6000000000000001 0  0.7999999999999998 -0.6000000000000001 0  1 -0.6000000000000001 0  1.2 -0.6000000000000001 0  1.4 -0.6000000000000001 0  1.6 -0.6000000000000001 0  1.8 -0.6000000000000001 0  2 -0.6000000000000001 0  -2 -0.3999999999999999 0  -1.8 -0.3999999999999999 0  -1.6 -0.3999999999999999 0  -1.4 -0.3999999999999999 0  -1.2 -0.3999999999999999 0  -1 -0.3999999999999999 0  -0.8 -0.3999999999999999 0  -0.6000000000000001 -0.3999999999999999 0  -0.3999999999999999 -0.3999999999999999 0  -0.2 -0.3999999999999999 0  0 -0.3999999999999999 0  0.2000000000000002 -0.3999999999999999 0  0.3999999999999999 -0.3999999999999999 0  0.6000000000000001 -0.3999999999999999 0  0.7999999999999998 -0.3999999999999999 0  1 -0.3999999999999999 0  1.2 -0.3999999999999999 0  1.4 -0.3999999999999999 0  1.6 -0.3999999999999999 0  1.8 -0.3999999999999999 0  2 -0.3999999999999999 0  -2 -0.2 0  -1.8 -0.2 0  -1.6 -0.2 0  -1.4 -0.2 0  -1.2 -0.2 0  -1 -0.2 0  -0.8 -0.2 0  -0.6000000000000001 -0.2 0  -0.3999999999999999 -0.2 0  -0.2 -0.2 0  0 -0.2 0  0.2000000000000002 -0.2 0  0.3999999999999999 -0.2 0  0.6000000000000001 -0.2 0  0.7999999999999998 -0.2 0  1 -0.2 0  1.2 -0.2 0  1.4 -0.2 0  1.6 -0.2 0  1.8 -0.2 0  2 -0.2 0  -2 0 0  -1.8 0 0  -1.6 0 0  -1.4 0 0  -1.2 0 0  -1 0 0  -0.8 0 0  -0.6000000000000001 0 0  -0.3999999999999999 0 0  -0.2 0 0  0 0 0  0.2000000000000002 0 0  0.3999999999999999 0 0  0.6000000000000001 0 0  0.7999999999999998 0 0  1 0 0  1.2 0 0  1.4 0 0  1.6 0 0  1.8 0 0  2 0 0  -2 0.2000000000000002 0  -1.8 0.2000000000000002 0  -1.6 0.2000000000000002 0  -1.4 0.2000000000000002 0  -1.2 0.2000000000000002 0  -1 0.2000000000000002 0  -0.8 0.2000000000000002 0  -0.6000000000000001 0.2000000000000002 0  -0.3999999999999999 0.2000000000000002 0  -0.2 0.2000000000000002 0  0 0.2000000000000002 0  0.2000000000000002 0.2000000000000002 0  0.3999999999999999 0.2000000000000002 0  0.6000000000000001 0.2000000000000002 0  0.7999999999999998 0.2000000000000002 0  1 0.2000000000000002 0  1.2 0.2000000000000002 0  1.4 0.2000000000000002 0  1.6 0.2000000000000002 0  1.8 0.2000000000000002 0  2 0.2000000000000002 0  -2 0.3999999999999999 0  -1.8 0.3999999999999999 0  -1.6 0.3999999999999999 0  -1.4 0.3999999999999999 0  -1.2 0.3999999999999999 0  -1 0.3999999999999999 0  -0.8 0.3999999999999999 0  -0.6000000000000001 0.3999999999999999 0  -0.3999999999999999 0.3999999999999999 0  -0.2 0.3999999999999999 0  0 0.3999999999999999 0  0.2000000000000002 0.3999999999999999 0  0.3999999999999999 0.3999999999999999 0  0.6000000000000001 0.3999999999999999 0  0.7999999999999998 0.3999999999999999 0  1 0.3999999999999999 0  1.2 0.3999999999999999 0  1.4 0.3999999999999999 0  1.6 0.3999999999999999 0  1.8 0.3999999999999999 0  2 0.3999999999999999 0  -2 0.6000000000000001 0  -1.8 0.6000000000000001 0  -1.6 0.6000000000000001 0  -1.4 0.6000000000000001 0  -1.2 0.6000000000000001 0  -1 0.6000000000000001 0  -0.8 0.6000000000000001 0  -0.6000000000000001 0.6000000000000001 0  -0.3999999999999999 0.6000000000000001 0  -0.2 0.6000000000000001 0  0 0.6000000000000001 0  0.2000000000000002 0.6000000000000001 0  0.3999999999999999 0.6000000000000001 0  0.6000000000000001 0.6000000000000001 0  0.7999999999999998 0.6000000000000001 0  1 0.6000000000000001 0  1.2 0.6000000000000001 0  1.4 0.6000000000000001 0  1.6 0.6000000000000001 0  1.8 0.6000000000000001 0  2 0.6000000000000001 0  -2 0.7999999999999998 0  -1.8 0.7999999999999998 0  -1.6 0.7999999999999998 0  -1.4 0.7999999999999998 0  -1.2 0.7999999999999998 0  -1 0.7999999999999998 0  -0.8 0.7999999999999998 0  -0.6000000000000001 0.7999999999999998 0  -0.3999999999999999 0.7999999999999998 0  -0.2 0.7999999999999998 0  0 0.7999999999999998 0  0.2000000000000002 0.7999999999999998 0  0.3999999999999999 0.7999999999999998 0  0.6000000000000001 0.7999999999999998 0  0.7999999999999998 0.7999999999999998 0  1 0.7999999999999998 0  1.2 0.7999999999999998 0  1.4 0.7999999999999998 0  1.6 0.7999999999999998 0  1.8 0.7999999999999998 0  2 0.7999999999999998 0  -2 1 0  -1.8 1 0  -1.6 1 0  -1.4 1 0  -1.2 1 0  -1 1 0  -0.8 1 0  -0.6000000000000001 1 0  -0.3999999999999999 1 0  -0.2 1 0  0 1 0  0.2000000000000002 1 0  0.3999999999999999 1 0  0.6000000000000001 1 0  0.7999999999999998 1 0  1 1 0  1.2 1 0  1.4 1 0  1.6 1 0  1.8 1 0  2 1 0  -2 1.2 0  -1.8 1.2 0  -1.6 1.2 0  -1.4 1.2 0  -1.2 1.2 0  -1 1.2 0  -0.8 1.2 0  -0.6000000000000001 1.2 0  -0.3999999999999999 1.2 0  -0.2 1.2 0  0 1.2 0  0.2000000000000002 1.2 0  0.3999999999999999 1.2 0  0.6000000000000001 1.2 0  0.7999999999999998 1.2 0  1 1.2 0  1.2 1.2 0  1.4 1.2 0  1.6 1.2 0  1.8 1.2 0  2 1.2 0  -2 1.4 0  -1.8 1.4 0  -1.6 1.4 0  -1.4 1.4 0  -1.2 1.4 0  -1 1.4 0  -0.8 1.4 0  -0.6000000000000001 1.4 0  -0.3999999999999999 1.4 0  -0.2 1.4 0  0 1.4 0  0.2000000000000002 1.4 0  0.3999999999999999 1.4 0  0.6000000000000001 1.4 0  0.7999999999999998 1.4 0  1 1.4 0  1.2 1.4 0  1.4 1.4 0  1.6 1.4 0  1.8 1.4 0  2 1.4 0  -2 1.6 0  -1.8 1.6 0  -1.6 1.6 0  -1.4 1.6 0  -1.2 1.6 0  -1 1.6 0  -0.8 1.6 0  -0.6000000000000001 1.6 0  -0.3999999999999999 1.6 0  -0.2 1.6 0  0 1.6 0  0.2000000000000002 1.6 0  0.3999999999999999 1.6 0  0.6000000000000001 1.6 0  0.7999999999999998 1.6 0  1 1.6 0  1.2 1.6 0  1.4 1.6 0  1.6 1.6 0  1.8 1.6 0  2 1.6 0  -2 1.8 0  -1.8 1.8 0  -1.6 1.8 0  -1.4 1.8 0  -1.2 1.8 0  -1 1.8 0  -0.8 1.8 0  -0.6000000000000001 1.8 0  -0.3999999999999999 1.8 0  -0.2 1.8 0  0 1.8 0  0.2000000000000002 1.8 0  0.3999999999999999 1.8 0  0.6000000000000001 1.8 0  0.7999999999999998 1.8 0  1 1.8 0  1.2 1.8 0  1.4 1.8 0  1.6 1.8 0  1.8 1.8 0  2 1.8 0  -2 2 0  -1.8 2 0  -1.6 2 0  -1.4 2 0  -1.2 2 0  -1 2 0  -0.8 2 0  -0.6000000000000001 2 0  -0.3999999999999999 2 0  -0.2 2 0  0 2 0  0.2000000000000002 2 0  0.3999999999999999 2 0  0.6000000000000001 2 0  0.7999999999999998 2 0  1 2 0  1.2 2 0  1.4 2 0  1.6 2 0  1.8 2 0  2 2 0  </DataArray>
</Points>
<Cells>
[...]
<PointData  Scalars="f_8"> 
<DataArray  type="Float64"  Name="f_8"  format="ascii">3.7389921983769592e-01  3.7294734539314162e-01  3.7057772216977314e-01  3.6683002130541625e-01  3.6178642841238501e-01  3.5556615116249879e-01  3.4832036147195866e-01  3.4022713111460312e-01  3.3148617326645796e-01  3.2231335013237566e-01  3.1293499241907069e-01  3.0358212507563131e-01  2.9448472016618998e-01  2.8586611123489009e-01  2.7793771071032081e-01  2.7089417866291271e-01  2.6490920428467868e-01  2.6013209019294276e-01  2.5668538893906184e-01  2.5466395605068975e-01  2.5413599833987194e-01  3.7346313612120963e-01  3.7270264049209334e-01  3.7045709254946635e-01  3.6679305545289626e-01  3.6180799666770103e-01  3.5562979283217905e-01  3.4841451573881932e-01  3.4034299147686331e-01  3.3161646956687868e-01  3.2245165684869265e-01  3.1307532652880077e-01  3.0371868664368773e-01  2.9461167356747270e-01  2.8597731920181302e-01  2.7802632165400931e-01  2.7095192585720179e-01  2.6492518947668520e-01  2.6009066521253887e-01  2.5656246344487010e-01  2.5442055096414617e-01  2.5370695906885282e-01  3.7335562796202132e-01  3.7260939270451277e-01  3.7039029119352235e-01  3.6675592061925211e-01  3.6179933543846893e-01  3.5564630136143321e-01  3.4845191981224338e-01  3.4039659864136901e-01  3.3168143031242692e-01  3.2252308621833203e-01  3.1314836103379007e-01  3.0378851245005506e-01  2.9467354387969374e-01  2.8602657357460082e-01  2.7805842510604517e-01  2.7096256316319739e-01  2.6491048725593069e-01  2.6004768710553683e-01  2.5649026200499209e-01  2.5432232054819481e-01  2.5359432220755257e-01  3.7331904798627685e-01  3.7257550697894842e-01  3.7036363787848714e-01  3.6673937982042643e-01  3.6179417736024660e-01  3.5565246179038695e-01  3.4846831183826577e-01  3.4042139249132347e-01  3.3171228575167522e-01  3.2255734212819687e-01  3.1318319293252034e-01  3.0382106960014327e-01  2.9470107716116350e-01  2.8604656513626792e-01  2.7806873137864940e-01  2.7096158372779938e-01  2.6489737179983863e-01  2.6002258765373876e-01  2.5645461983962048e-01  2.5427912989506662e-01  2.5354820118051902e-01  3.7330724746683230e-01  3.7256455675551337e-01  3.7035515511750811e-01  3.6673460022325899e-01  3.6179383245319707e-01  3.5565675010245601e-01  3.4847693359805104e-01  3.4043362216586992e-01  3.3172706453900497e-01  3.2257337931848334e-01  3.1319906994015317e-01  3.0383534360158126e-01  2.9471238304833119e-01  2.8605371521934853e-01  2.7807081205569323e-01  2.7095804707178717e-01  2.6488811738722323e-01  2.6000802555470409e-01  2.5643569926216170e-01  2.5425731018260606e-01  2.5352533606413308e-01  3.7330505893131760e-01  3.7256267168490415e-01  3.7035415984220005e-01  3.6673496182148624e-01  3.6179584114474317e-01  3.5566048840754805e-01  3.4848227127556819e-01  3.4044023295170533e-01  3.3173445969352144e-01  3.2258095307414114e-01  3.1320615248378209e-01  3.0384125784819105e-01  2.9471650195842219e-01  2.8605551667873219e-01  2.7806992833645594e-01  2.7095430563139083e-01  2.6488156930409867e-01  2.5999895740641971e-01  2.5642462405623717e-01  2.5424493362521505e-01  2.5351249684847865e-01  3.7330631643564616e-01  3.7256403186845666e-01  3.7035581645332188e-01  3.6673706507445791e-01  3.6179847431383910e-01  3.5566365305911934e-01  3.4848588227263316e-01  3.4044412306908217e-01  3.3173839274738343e-01  3.2258464388279512e-01  3.1320929165974676e-01  3.0384353928784458e-01  2.9471765087100826e-01  2.8605531603117829e-01  2.7806824166039940e-01  2.7095109424752822e-01  2.6487690219812565e-01  2.5999301229964394e-01  2.5641767873315163e-01  2.5423734739292331e-01  2.5350468315093133e-01  3.7330842565261951e-01  3.7256616784627478e-01  3.7035802438906901e-01  3.6673937360687536e-01  3.6180088644019565e-01  3.5566614021891813e-01  3.4848838226374368e-01  3.4044654199173341e-01  3.3174061074068484e-01  3.2258652406522953e-01  3.1321069142351948e-01  3.0384432292613939e-01  2.9471770242915551e-01  2.8605455125853146e-01  2.7806661799309601e-01  2.7094861787146729e-01  2.6487363142886400e-01  2.5998905677593481e-01  2.5641319425530068e-01  2.5423252663793483e-01  2.5349974293656463e-01  3.7331039963520513e-01  3.7256814173493241e-01  3.7035999232505623e-01  3.6674132358916151e-01  3.6180279703143642e-01  3.5566797849428033e-01  3.4849010330224017e-01  3.4044809003144516e-01  3.3174192193720753e-01  3.2258753062635392e-01  3.1321132675639252e-01  3.0384452733444489e-01  2.9471742884142532e-01  2.8605377045577696e-01  2.7806532283382707e-01  2.7094682608280873e-01  2.6487138664059029e-01  2.5998642761475049e-01  2.5641027148182027e-01  2.5422941848697700e-01  2.5349656899648454e-01  3.7331200254244351e-01  3.7256973639985730e-01  3.7036155891099243e-01  3.6674284013504255e-01  3.6180423839654241e-01  3.5566931581813410e-01  3.4849130410751145e-01  3.4044911902413361e-01  3.3174274247959695e-01  3.2258810678276256e-01  3.1321162574693123e-01  3.0384452218349195e-01  2.9471710097912884e-01  2.8605311202457234e-01  2.7806433846799328e-01  2.7094553396621912e-01  2.6486981870333065e-01  2.5998462879908912e-01  2.5640829808667448e-01  2.5422733568088562e-01  2.5349444766461970e-01  3.7331334209387723e-01  3.7257106561549391e-01  3.7036285565350802e-01  3.6674408150816812e-01  3.6180540043844300e-01  3.5567037346017033e-01  3.4849223146167885e-01  3.4044989002377896e-01  3.3174333185600197e-01  3.2258849131935191e-01  3.1321178571737912e-01  3.0384444285335221e-01  2.9471677403532459e-01  2.8605253679457576e-01  2.7806352280108926e-01  2.7094449467203235e-01  2.6486858147594028e-01  2.5998322759575965e-01  2.5640677397500206e-01  2.5422573521299247e-01  2.5349282087778319e-01  3.7331466834204408e-01  3.7257238072146470e-01  3.7036413737660151e-01  3.6674530685902151e-01  3.6180654538363038e-01  3.5567141289704862e-01  3.4849313952363176e-01  3.4045064073698161e-01  3.3174390012700111e-01  3.2258885419255678e-01  3.1321192380704471e-01  3.0384434182913689e-01  2.9471642602640130e-01  2.8605194157587388e-01  2.7806268863672512e-01  2.7094343871445059e-01  2.6486732965280374e-01  2.5998181395738973e-01  2.5640523951964544e-01  2.5422412625138396e-01  2.5349118703824758e-01  3.7331625898613513e-01  3.7257396051689118e-01  3.7036568575929507e-01  3.6674680114178498e-01  3.6180795975388585e-01  3.5567271794973326e-01  3.4849430244451279e-01  3.4045162617696723e-01  3.3174467173020072e-01  3.2258937666799614e-01  3.1321216537284358e-01  3.0384427681368120e-01  2.9471603738687518e-01  2.8605122309204284e-01  2.7806164655710564e-01  2.7094209267154062e-01  2.6486571272107373e-01  2.5997997179804672e-01  2.5640322863424114e-01  2.5422201144536188e-01  2.5348903826789926e-01  3.7331830418769746e-01  3.7257600099084631e-01  3.7036771306475419e-01  3.6674880054749481e-01  3.6180990710760425e-01  3.5567457784517387e-01  3.4849602795067386e-01  3.4045316021533389e-01  3.3174595000754387e-01  3.2259033191397513e-01  3.1321273250437986e-01  3.0384439855911216e-01  2.9471566985544007e-01  2.8605034076900965e-01  2.7806024624097692e-01  2.7094019594533880e-01  2.6486336666152538e-01  2.5997724776943626e-01  2.5640021917963035e-01  2.5421882546444485e-01  2.5348579484093348e-01  3.7332069995934675e-01  3.7257841768222266e-01  3.7037018948388933e-01  3.6675135822156335e-01  3.6181254164187454e-01  3.5567725357757657e-01  3.4849867647372074e-01  3.4045568287509714e-01  3.3174822407792259e-01  3.2259221981457992e-01  3.1321409319118626e-01  3.0384510006487314e-01  2.9471560188287577e-01  2.8604942623551322e-01  2.7805845073407315e-01  2.7093753417334560e-01  2.6485990517789076e-01  2.5997310351746578e-01  2.5639555374809508e-01  2.5421383535319575e-01  2.5348069847713328e-01  3.7332262088380608e-01  3.7258043823071141e-01  3.7037249066145805e-01  3.6675407513990471e-01  3.6181574129603727e-01  3.5568092149128749e-01  3.4850271309220471e-01  3.4045990936261727e-01  3.3175239632260289e-01  3.2259604892071742e-01  3.1321727046641823e-01  3.0384732439976214e-01  2.9471660740414585e-01  2.8604900814629441e-01  2.7805648731697891e-01  2.7093400303483423e-01  2.6485489199371820e-01  2.5996680186520088e-01  2.5638825516920488e-01  2.5420590965583184e-01  2.5347256549945085e-01  3.7332162089646620e-01  3.7257975248661102e-01  3.7037268265414020e-01  3.6675558285504173e-01  3.6181882309386509e-01  3.5568562871833925e-01  3.4850888783291228e-01  3.4046720315002005e-01  3.3176030485476293e-01  3.2260395802198505e-01  3.1322450910434119e-01  3.0385322117238744e-01  2.9472054736382192e-01  2.8605048703567876e-01  2.7805516022812615e-01  2.7092972417627753e-01  2.6484774174034431e-01  2.5995709675836370e-01  2.5637653639844799e-01  2.5419290641563608e-01  2.5345913236804518e-01  3.7331160441522815e-01  3.7257063688482839e-01  3.7036604103866161e-01  3.6675259383194392e-01  3.6182015964129755e-01  3.5569143692013139e-01  3.4851882537699747e-01  3.4048051304655813e-01  3.3177590758401948e-01  3.2262055185460853e-01  3.1324067295356989e-01  3.0386751726196759e-01  2.9473162261825220e-01  2.8605717269963499e-01  2.7805656887554553e-01  2.7092534183244771e-01  2.6483750997406963e-01  2.5994147488087493e-01  2.5635652714052398e-01  2.5417002053036009e-01  2.5343526251591453e-01  3.7327734223205150e-01  3.7253921886710972e-01  3.7034187889500220e-01  3.6673844270348122e-01  3.6181719509265997e-01  3.5569953302005936e-01  3.4853686001061990e-01  3.4050663959234484e-01  3.3180778011894962e-01  3.2265550926380859e-01  3.1327589275887707e-01  3.0390015068398657e-01  2.9475892197765052e-01  2.8607662223185171e-01  2.7806603074184277e-01  2.7092323007710056e-01  2.6482300474772641e-01  2.5991478349637714e-01  2.5631917882977306e-01  2.5412512990669106e-01  2.5338757518580257e-01  3.7317261980130645e-01  3.7244907484288570e-01  3.7027794767033168e-01  3.6670375521741033e-01  3.6181053619637132e-01  3.5571764509700532e-01  3.4857553519909801e-01  3.4056124901720486e-01  3.3187352477714804e-01  3.2272753734758874e-01  3.1334935497395533e-01  3.0397022793051665e-01  2.9482084267121883e-01  2.8612568198486776e-01  2.7809763291918344e-01  2.7093298423487966e-01  2.6480695901155976e-01  2.5986994303780775e-01  2.5624460746512184e-01  2.5402420487163108e-01  2.5327247664115898e-01  3.7274170830139119e-01  3.7220660952566348e-01  3.7015792641060047e-01  3.6666653919120018e-01  3.6183146478785577e-01  3.5578054867119308e-01  3.4866903616517481e-01  3.4067665547874332e-01  3.3200363455338450e-01  3.2286595864792011e-01  3.1349011115702125e-01  3.0410750155551636e-01  2.9494875749909527e-01  2.8623803486259058e-01  2.7818747471659638e-01  2.7099190575572668e-01  2.6482384954287147e-01  2.5982882635825266e-01  2.5612086788103650e-01  2.5377799509453758e-01  2.5283717207658429e-01  </DataArray> 
</PointData> 
</Piece>
</UnstructuredGrid>
</VTKFile>