<?xml version="1.0"?>
<VTKFile type="UnstructuredGrid"  version="0.1"  >
<UnstructuredGrid>
<Piece  NumberOfPoints="441" NumberOfCells="800">
<Points>
<DataArray  type="Float64"  NumberOfComponents="3"  format="ascii">-2 -2 0  -1.8 -2 0  -1.6 -2 0  -1.4 -2 0  -1.2 -2 0  -1 -2 0  -0.8 -2 0  -0.6000000000000001 -2 0  -0.3999999999999999 -2 0  -0.2 -2 0  0 -2 0  0.2000000000000002 -2 0  0.3999999999999999 -2 0  0.6000000000000001 -2 0  0.7999999999999998 -2 0  1 -2 0  1.2 -2 0  1.4 -2 0  1.6 -2 0  1.8 -2 0  2 -2 0  -2 -1.8 0  -1.8 -1.8 0  -1.6 -1.8 0  -1.4 -1.8 0  -1.2 -1.8 0  -1 -1.8 0  -0.8 -1.8 0  -0.6000000000000001 -1.8 0  -0.3999999999999999 -1.8 0  -0.2 -1.8 0  0 -1.8 0  0.2000000000000002 -1.8 0  0.3999999999999999 -1.8 0  0.6000000000000001 -1.8 0  0.7999999999999998 -1.8 0  1 -1.8 0  1.2 -1.8 0  1.4 -1.8 0  1.6 -1.8 0  1.8 -1.8 0  2 -1.8 0  -2 -1.6 0  -1.8 -1.6 0  -1.6 -1.6 0  -1.4 -1.6 0  -1.2 -1.6 0  -1 -1.6 0  -0.8 -1.6 0  -0.6000000000000001 -1.6 0  -0.3999999999999999 -1.6 0  -0.2 -1.6 0  0 -1.6 0  0.2000000000000002 -1.6 0  0.3999999999999999 -1.6 0  0.6000000000000001 -1.6 0  0.7999999999999998 -1.6 0  1 -1.6 0  1.2 -1.6 0  1.4 -1.6 0  1.6 -1.6 0  1.8 -1.6 0  2 -1.6 0  -2 -1.4 0  -1.8 -1.4 0  -1.6 -1.4 0  -1.4 -1.4 0  -1.2 -1.4 0  -1 -1.4 0  -0.8 -1.4 0  -0.6000000000000001 -1.4 0  -0.3999999999999999 -1.4 0  -0.2 -1.4 0  0 -1.4 0  0.2000000000000002 -1.4 0  0.3999999999999999 -1.4 0  0.6000000000000001 -1.4 0  0.7999999999999998 -1.4 0  1 -1.4 0  1.2 -1.4 0  1.4 -1.4 0  1.6 -1.4 0  1.8 -1.4 0  2 -1.4 0  -2 -1.2 0  -1.8 -1.2 0  -1.6 -1.2 0  -1.4 -1.2 0  -1.2 -1.2 0  -1 -1.2 0  -0.8 -1.2 0  -0.6000000000000001 -1.2 0  -0.3999999999999999 -1.2 0  -0.2 -1.2 0  0 -1.2 0  0.2000000000000002 -1.2 0  0.3999999999999999 -1.2 0  0.6000000000000001 -1.2 0  0.7999999999999998 -1.2 0  1 -1.2 0  1.2 -1.2 0  1.4 -1.2 0  1.6 -1.2 0  1.8 -1.2 0  2 -1.2 0  -2 -1 0  -1.8 -1 0  -1.6 -1 0  -1.4 -1 0  -1.2 -1 0  -1 -1 0  -0.8 -1 0  -0.6000000000000001 -1 0  -0.3999999999999999 -1 0  -0.2 -1 0  0 -1 0  0.2000000000000002 -1 0  0.3999999999999999 -1 0  0.6000000000000001 -1 0  0.7999999999999998 -1 0  1 -1 0  1.2 -1 0  1.4 -1 0  1.6 -1 0  1.8 -1 0  2 -1 0  -2 -0.8 0  -1.8 -0.8 0  -1.6 -0.8 0  -1.4 -0.8 0  -1.2 -0.8 0  -1 -0.8 0  -0.8 -0.8 0  -0.6000000000000001 -0.8 0  -0.3999999999999999 -0.8 0  -0.2 -0.8 0  0 -0.8 0  0.2000000000000002 -0.8 0  0.3999999999999999 -0.8 0  0.6000000000000001 -0.8 0  0.7999999999999998 -0.8 0  1 -0.8 0  1.2 -0.8 0  1.4 -0.8 0  1.6 -0.8 0  1.8 -0.8 0  2 -0.8 0  -2 -0.6000000000000001 0  -1.8 -0.6000000000000001 0  -1.6 -0.6000000000000001 0  -1.4 -0.6000000000000001 0  -1.2 -0.6000000000000001 0  -1 -0.6000000000000001 0  -0.8 -0.6000000000000001 0  -0.6000000000000001 -0.6000000000000001 0  -0.3999999999999999 -0.6000000000000001 0  -0.2 -0.6000000000000001 0  0 -0.6000000000000001 0  0.2000000000000002 -0.6000000000000001 0  0.3999999999999999 -0.6000000000000001 0  0.6000000000000001 -0.6000000000000001 0  0.7999999999999998 -0.6000000000000001 0  1 -0.6000000000000001 0  1.2 -0.6000000000000001 0  1.4 -0.6000000000000001 0  1.6 -0.6000000000000001 0  1.8 -0.6000000000000001 0  2 -0.6000000000000001 0  -2 -0.3999999999999999 0  -1.8 -0.3999999999999999 0  -1.6 -0.3999999999999999 0  -1.4 -0.3999999999999999 0  -1.2 -0.3999999999999999 0  -1 -0.3999999999999999 0  -0.8 -0.3999999999999999 0  -0.6000000000000001 -0.3999999999999999 0  -0.3999999999999999 -0.3999999999999999 0  -0.2 -0.3999999999999999 0  0 -0.3999999999999999 0  0.2000000000000002 -0.3999999999999999 0  0.3999999999999999 -0.3999999999999999 0  0.6000000000000001 -0.3999999999999999 0  0.7999999999999998 -0.3999999999999999 0  1 -0.3999999999999999 0  1.2 -0.3999999999999999 0  1.4 -0.3999999999999999 0  1.6 -0.3999999999999999 0  1.8 -0.3999999999999999 0  2 -0.3999999999999999 0  -2 -0.2 0  -1.8 -0.2 0  -1.6 -0.2 0  -1.4 -0.2 0  -1.2 -0.2 0  -1 -0.2 0  -0.8 -0.2 0  -0.6000000000000001 -0.2 0  -0.3999999999999999 -0.2 0  -0.2 -0.2 0  0 -0.2 0  0.2000000000000002 -0.2 0  0.3999999999999999 -0.2 0  0.6000000000000001 -0.2 0  0.7999999999999998 -0.2 0  1 -0.2 0  1.2 -0.2 0  1.4 -0.2 0  1.6 -0.2 0  1.8 -0.2 0  2 -0.2 0  -2 0 0  -1.8 0 0  -1.6 0 0  -1.4 0 0  -1.2 0 0  -1 0 0  -0.8 0 0  -0.6000000000000001 0 0  -0.3999999999999999 0 0  -0.2 0 0  0 0 0  0.2000000000000002 0 0  0.3999999999999999 0 0  0.6000000000000001 0 0  0.7999999999999998 0 0  1 0 0  1.2 0 0  1.4 0 0  1.6 0 0  1.8 0 0  2 0 0  -2 0.2000000000000002 0  -1.8 0.2000000000000002 0  -1.6 0.2000000000000002 0  -1.4 0.2000000000000002 0  -1.2 0.2000000000000002 0  -1 0.2000000000000002 0  -0.8 0.2000000000000002 0  -0.6000000000000001 0.2000000000000002 0  -0.3999999999999999 0.2000000000000002 0  -0.2 0.2000000000000002 0  0 0.2000000000000002 0  0.2000000000000002 0.2000000000000002 0  0.3999999999999999 0.2000000000000002 0  0.6000000000000001 0.2000000000000002 0  0.7999999999999998 0.2000000000000002 0  1 0.2000000000000002 0  1.2 0.2000000000000002 0  1.4 0.2000000000000002 0  1.6 0.2000000000000002 0  1.8 0.2000000000000002 0  2 0.2000000000000002 0  -2 0.3999999999999999 0  -1.8 0.3999999999999999 0  -1.6 0.3999999999999999 0  -1.4 0.3999999999999999 0  -1.2 0.3999999999999999 0  -1 0.3999999999999999 0  -0.8 0.3999999999999999 0  -0.6000000000000001 0.3999999999999999 0  -0.3999999999999999 0.3999999999999999 0  -0.2 0.3999999999999999 0  0 0.3999999999999999 0  0.2000000000000002 0.3999999999999999 0  0.3999999999999999 0.3999999999999999 0  0.6000000000000001 0.3999999999999999 0  0.7999999999999998 0.3999999999999999 0  1 0.3999999999999999 0  1.2 0.3999999999999999 0  1.4 0.3999999999999999 0  1.6 0.3999999999999999 0  1.8 0.3999999999999999 0  2 0.3999999999999999 0  -2 0.6000000000000001 0  -1.8 0.6000000000000001 0  -1.6 0.6000000000000001 0  -1.4 0.6000000000000001 0  -1.2 0.6000000000000001 0  -1 0.6000000000000001 0  -0.8 0.6000000000000001 0  -0.6000000000000001 0.6000000000000001 0  -0.3999999999999999 0.6000000000000001 0  -0.2 0.6000000000000001 0  0 0.6000000000000001 0  0.2000000000000002 0.6000000000000001 0  0.3999999999999999 0.6000000000000001 0  0.6000000000000001 0.6000000000000001 0  0.7999999999999998 0.6000000000000001 0  1 0.6000000000000001 0  1.2 0.6000000000000001 0  1.4 0.6000000000000001 0  1.6 0.6000000000000001 0  1.8 0.6000000000000001 0  2 0.6000000000000001 0  -2 0.7999999999999998 0  -1.8 0.7999999999999998 0  -1.6 0.7999999999999998 0  -1.4 0.7999999999999998 0  -1.2 0.7999999999999998 0  -1 0.7999999999999998 0  -0.8 0.7999999999999998 0  -0.6000000000000001 0.7999999999999998 0  -0.3999999999999999 0.7999999999999998 0  -0.2 0.7999999999999998 0  0 0.7999999999999998 0  0.2000000000000002 0.7999999999999998 0  0.3999999999999999 0.7999999999999998 0  0.6000000000000001 0.7999999999999998 0  0.7999999999999998 0.7999999999999998 0  1 0.7999999999999998 0  1.2 0.7999999999999998 0  1.4 0.7999999999999998 0  1.6 0.7999999999999998 0  1.8 0.7999999999999998 0  2 0.7999999999999998 0  -2 1 0  -1.8 1 0  -1.6 1 0  -1.4 1 0  -1.2 1 0  -1 1 0  -0.8 1 0  -0.6000000000000001 1 0  -0.3999999999999999 1 0  -0.2 1 0  0 1 0  0.2000000000000002 1 0  0.3999999999999999 1 0  0.6000000000000001 1 0  0.7999999999999998 1 0  1 1 0  1.2 1 0  1.4 1 0  1.6 1 0  1.8 1 0  2 1 0  -2 1.2 0  -1.8 1.2 0  -1.6 1.2 0  -1.4 1.2 0  -1.2 1.2 0  -1 1.2 0  -0.8 1.2 0  -0.6000000000000001 1.2 0  -0.3999999999999999 1.2 0  -0.2 1.2 0  0 1.2 0  0.2000000000000002 1.2 0  0.3999999999999999 1.2 0  0.6000000000000001 1.2 0  0.7999999999999998 1.2 0  1 1.2 0  1.2 1.2 0  1.4 1.2 0  1.6 1.2 0  1.8 1.2 0  2 1.2 0  -2 1.4 0  -1.8 1.4 0  -1.6 1.4 0  -1.4 1.4 0  -1.2 1.4 0  -1 1.4 0  -0.8 1.4 0  -0.6000000000000001 1.4 0  -0.3999999999999999 1.4 0  -0.2 1.4 0  0 1.4 0  0.2000000000000002 1.4 0  0.3999999999999999 1.4 0  0.6000000000000001 1.4 0  0.7999999999999998 1.4 0  1 1.4 0  1.2 1.4 0  1.4 1.4 0  1.6 1.4 0  1.8 1.4 0  2 1.4 0  -2 1.6 0  -1.8 1.6 0  -1.6 1.6 0  -1.4 1.6 0  -1.2 1.6 0  -1 1.6 0  -0.8 1.6 0  -0.6000000000000001 1.6 0  -0.3999999999999999 1.6 0  -0.2 1.6 0  0 1.6 0  0.2000000000000002 1.6 0  0.3999999999999999 1.6 0  0.6000000000000001 1.6 0  0.7999999999999998 1.6 0  1 1.6 0  1.2 1.6 0  1.4 1.6 0  1.6 1.6 0  1.8 1.6 0  2 1.6 0  -2 1.8 0  -1.8 1.8 0  -1.6 1.8 0  -1.4 1.8 0  -1.2 1.8 0  -1 1.8 0  -0.8 1.8 0  -0.6000000000000001 1.8 0  -0.3999999999999999 1.8 0  -0.2 1.8 0  0 1.8 0  0.2000000000000002 1.8 0  0.3999999999999999 1.8 0  0.6000000000000001 1.8 0  0.7999999999999998 1.8 0  1 1.8 0  1.2 1.8 0  1.4 1.8 0  1.6 1.8 0  1.8 1.8 0  2 1.8 0  -2 2 0  -1.8 2 0  -1.6 2 0  -1.4 2 0  -1.2 2 0  -1 2 0  -0.8 2 0  -0.6000000000000001 2 0  -0.3999999999999999 2 0  -0.2 2 0  0 2 0  0.2000000000000002 2 0  0.3999999999999999 2 0  0.6000000000000001 2 0  0.7999999999999998 2 0  1 2 0  1.2 2 0  1.4 2 0  1.6 2 0  1.8 2 0  2 2 0  </DataArray>
</Points>
<Cells>
[...]
<PointData  Scalars="f_8"> 
<DataArray  type="Float64"  Name="f_8"  format="ascii">7.7705034198473910e-02  7.6551786265171493e-02  7.3731754289136600e-02  6.9418828745996849e-02  6.3886193316014583e-02  5.7472177631542665e-02  5.0543067852745170e-02  4.3457383593213147e-02  3.6535726692138268e-02  3.0039127558699270e-02  2.4157236456673160e-02  1.9006116813022885e-02  1.4634111087140368e-02  1.1033457652077538e-02  8.1550889342828243e-03  5.9242642780948920e-03  4.2552346773873494e-03  3.0638225421355421e-03  2.2774681062118114e-03  1.8428340768303973e-03  1.7314249282152638e-03  7.7259369794938110e-02  7.6345886687108913e-02  7.3689493103042694e-02  6.9485763039069656e-02  6.4020008109963208e-02  5.7638577195244511e-02  5.0714509000056265e-02  4.3613002657494897e-02  3.6661458872225605e-02  3.0127488374836975e-02  2.4206581218667218e-02  1.9019429782377046e-02  1.4617507189695161e-02  1.0994617098913495e-02  8.1018083550599331e-03  5.8632213396346833e-03  4.1909491607833842e-03  2.9976687099922887e-03  2.2064479898128058e-03  1.7576328630714508e-03  1.6129780839375452e-03  7.7212031388633362e-02  7.6316049125533622e-02  7.3691732862407086e-02  6.9520347354551745e-02  6.4079350195806684e-02  5.7711524434299118e-02  5.0789344260037693e-02  4.3679509583967241e-02  3.6712180102390399e-02  3.0158254953463390e-02  2.4216420838063642e-02  1.9010010028072295e-02  1.4592301614261245e-02  1.0957981491432824e-02  8.0581233449788583e-03  5.8162076903967644e-03  4.1432112409773951e-03  2.9504882746079156e-03  2.1598530797710615e-03  1.7108265730888361e-03  1.5653610788775468e-03  7.7229058003921852e-02  7.6335272518571834e-02  7.3716180787962535e-02  6.9550533264843978e-02  6.4113450872262376e-02  5.7746182874084145e-02  5.0820660593962216e-02  4.3703946454340122e-02  3.6727219767839971e-02  3.0162736045639890e-02  2.4210559236263900e-02  1.8995166047675174e-02  1.4570589027566565e-02  1.0931821440944426e-02  8.0298321220406733e-03  5.7876799409672707e-03  4.1157291455363801e-03  2.9246608489936748e-03  2.1356722705845191e-03  1.6878167783111854e-03  1.5427865771105820e-03  7.7248853647557778e-02  7.6355210763244766e-02  7.3736194276361078e-02  6.9570153373589017e-02  6.4131778248924076e-02  5.7762041795774342e-02  5.0832854965480019e-02  4.3711525840358680e-02  3.6729681133374950e-02  3.0160117931541486e-02  2.4203419377761499e-02  1.8984462432530172e-02  1.4557502528372630e-02  1.0917563565155180e-02  8.0154757209485762e-03  5.7740379356730686e-03  4.1032913398607873e-03  2.9135859149303518e-03  2.1258235255489262e-03  1.6788269200409670e-03  1.5341370096925316e-03  7.7259715053842076e-02  7.6365945154328596e-02  7.3746422101288914e-02  6.9579456773506659e-02  6.4139716703806193e-02  5.7768200481963454e-02  5.0836911417549993e-02  4.3713313287704864e-02  3.6729228476565581e-02  3.0157654331813701e-02  2.4199342149980360e-02  1.8979276660036525e-02  1.4551746889981064e-02  1.0911738196647407e-02  8.0099850250118145e-03  5.7691557203445251e-03  4.0991495320682218e-03  2.9101831231367072e-03  2.1230469640025219e-03  1.6764808664031031e-03  1.5319725652002073e-03  7.7263767672301475e-02  7.6369907073851689e-02  7.3750097748398677e-02  6.9582660830620285e-02  6.4142288204192266e-02  5.7770019709898826e-02  5.0837916168880865e-02  4.3713509811711355e-02  3.6728693118802926e-02  3.0156524188254409e-02  2.4197795996468249e-02  1.8977509963806323e-02  1.4549946031481060e-02  1.0910058827912116e-02  8.0085379970260950e-03  5.7680018299541636e-03  4.0983021875906920e-03  2.9096164957583240e-03  2.1227065868891209e-03  1.6762939611530744e-03  1.5318563687358479e-03  7.7264798885879268e-02  7.6370899465433573e-02  7.3750991263443477e-02  6.9583402997015695e-02  6.4142839456756737e-02  5.7770357940411528e-02  5.0838039611004880e-02  4.3713437401818170e-02  3.6728461871528645e-02  3.0156183793855987e-02  2.4197401556956599e-02  1.8977114280044213e-02  1.4549592958328989e-02  1.0909778899126822e-02  8.0083469017640466e-03  5.7679016040111776e-03  4.0982843787716727e-03  2.9096662246487293e-03  2.1228064028730080e-03  1.6764266451075921e-03  1.5320062541826563e-03  7.7264948692441354e-02  7.6371037086665233e-02  7.3751105540496603e-02  6.9583485378133650e-02  6.4142885151490872e-02  5.7770366623913522e-02  5.0838015505743205e-02  4.3713388648302751e-02  3.6728399238248104e-02  3.0156118935931810e-02  2.4197345160183570e-02  1.8977074473063401e-02  1.4549574317978790e-02  1.0909782226826698e-02  8.0083697577252987e-03  5.7679394095637082e-03  4.0983317840911629e-03  2.9097184129739822e-03  2.1228600565093314e-03  1.6764804048441362e-03  1.5320606265660137e-03  7.7264948471031603e-02  7.6371034183417369e-02  7.3751099228058892e-02  6.9583475510626977e-02  6.4142872260021966e-02  5.7770351894831116e-02  5.0838000629134815e-02  4.3713375550809765e-02  3.6728389743996552e-02  3.0156114423464369e-02  2.4197346292260131e-02  1.8977081064313388e-02  1.4549585373982748e-02  1.0909796146097309e-02  8.0083846484466856e-03  5.7679534482062526e-03  4.0983435398216196e-03  2.9097270787734426e-03  2.1228655568568326e-03  1.6764833794996631e-03  1.5320623109610194e-03  7.7264944343960210e-02  7.6371029715369770e-02  7.3751094628045868e-02  6.9583471055887747e-02  6.4142868270825465e-02  5.7770348694875538e-02  5.0837998495748098e-02  4.3713374663122431e-02  3.6728390140112463e-02  3.0156115977976943e-02  2.4197348722348518e-02  1.8977083966344521e-02  1.4549588284642895e-02  1.0909798615129737e-02  8.0083863066220690e-03  5.7679540556515117e-03  4.0983430059475740e-03  2.9097254536940352e-03  2.1228630023341515e-03  1.6764801322295482e-03  1.5320586508524459e-03  7.7264941059439013e-02  7.6371026593491279e-02  7.3751091963261017e-02  6.9583469065849210e-02  6.4142867083579622e-02  5.7770348345137008e-02  5.0837998929442962e-02  4.3713375749596904e-02  3.6728391691344904e-02  3.0156117773534209e-02  2.4197350537742829e-02  1.8977085601260140e-02  1.4549589586782380e-02  1.0909799495664589e-02  8.0083867445783202e-03  5.7679540907390678e-03  4.0983427217351296e-03  2.9097249549332859e-03  2.1228623911374272e-03  1.6764794875714730e-03  1.5320580147460054e-03  7.7264920679779969e-02  7.6371007690837212e-02  7.3751074962316823e-02  6.9583454202213957e-02  6.4142854479516398e-02  5.7770338062932566e-02  5.0837990993507672e-02  4.3713370139952377e-02  3.6728388320434166e-02  3.0156116462677084e-02  2.4197351008004603e-02  1.8977087487088679e-02  1.4549592472180109e-02  1.0909802964971070e-02  8.0083904353932724e-03  5.7679577358865286e-03  4.0983461698671049e-03  2.9097281640931777e-03  2.1228653950701834e-03  1.6764823399468612e-03  1.5320607213336894e-03  7.7264908425661125e-02  7.6370998206463980e-02  7.3751062678530654e-02  6.9583434429735885e-02  6.4142824191464179e-02  5.7770296320778333e-02  5.0837938964466194e-02  4.3713310731567576e-02  3.6728325535115784e-02  3.0156054628626125e-02  2.4197294056363634e-02  1.8977038414894950e-02  1.4549553068186557e-02  1.0909773801402024e-02  8.0083710649631133e-03  5.7679469953837480e-03  4.0983424849748767e-03  2.9097297714091282e-03  2.1228704371069112e-03  1.6764888356791199e-03  1.5320664576740364e-03  7.7265346446549241e-02  7.6371423249959103e-02  7.3751428646229036e-02  6.9583702950521686e-02  6.4142968610627640e-02  5.7770304252755367e-02  5.0837812987531060e-02  4.3713067052461987e-02  3.6727990835222997e-02  3.0155661685223333e-02  2.4196876973154851e-02  1.8976628315389737e-02  1.4549174909122026e-02  1.0909444629078351e-02  8.0080996765990245e-03  5.7677346829338198e-03  4.0981843935208942e-03  2.9096164114935531e-03  2.1227890202194931e-03  1.6764242979831253e-03  1.5320022347424292e-03  7.7268162628319301e-02  7.6374144620972570e-02  7.3753871074914379e-02  6.9585705764581479e-02  6.4144407517460061e-02  5.7771103172576187e-02  5.0837951956178913e-02  4.3712583557070313e-02  3.6726973391387675e-02  3.0154236443775812e-02  2.4195189864203045e-02  1.8974826132847445e-02  1.4547388628807218e-02  1.0907777319623323e-02  8.0066200127943896e-03  5.7664757602889413e-03  4.0971466212580306e-03  2.9087728932375269e-03  2.1220919876351629e-03  1.6758116667006482e-03  1.5314039592247573e-03  7.7277903339355511e-02  7.6383621008014657e-02  7.3762654005004272e-02  6.9593369736131977e-02  6.4150556704877265e-02  5.7775417519293625e-02  5.0840237014359593e-02  4.3712806592361882e-02  3.6725273692167673e-02  3.0150906329463635e-02  2.4190631171283183e-02  1.8969492540480113e-02  1.4541726033537705e-02  1.0902172880001450e-02  8.0013666736290321e-03  5.7617545848645162e-03  4.0930254681528213e-03  2.9052176947734743e-03  2.1189862885437620e-03  1.6729807651390920e-03  1.5286412184733627e-03  7.7299257839152480e-02  7.6404787122016274e-02  7.3783324556237789e-02  6.9612895515005671e-02  6.4167983000454440e-02  5.7789665329529671e-02  5.0850340251755985e-02  4.3718124043922398e-02  3.6725620610628985e-02  3.0146583017039656e-02  2.4182355611414730e-02  1.8958264964697078e-02  1.4528662667393791e-02  1.0888344696671229e-02  7.9876699424589626e-03  5.7488275944203261e-03  4.0812140461419840e-03  2.8945837987419949e-03  2.1093499906903808e-03  1.6639855938383012e-03  1.5198337920114776e-03  7.7323429630285920e-02  7.6430949632378870e-02  7.3813851247813977e-02  6.9647692629688535e-02  6.4204877882721487e-02  5.7825275363313992e-02  5.0881032764599744e-02  4.3740830752883125e-02  3.6738377875364346e-02  3.0148755997168562e-02  2.4174573584808467e-02  1.8942142384956420e-02  1.4506402729122904e-02  1.0862320462124968e-02  7.9600584448707851e-03  5.7213436582711965e-03  4.0549620264264119e-03  2.8700241368743162e-03  2.0863667806164049e-03  1.6420397237239741e-03  1.4981856917674530e-03  7.7287231299903877e-02  7.6413231640016108e-02  7.3827293033077793e-02  6.9691581549427270e-02  6.4271215412706653e-02  5.7902870742900625e-02  5.0958381855692840e-02  4.3808090452337127e-02  3.6788548133835586e-02  3.0178143574546425e-02  2.4182646980198036e-02  1.8930937585529672e-02  1.4479670032096994e-02  1.0824599680855078e-02  7.9158355396425142e-03  5.6743890059662632e-03  4.0078967515088321e-03  2.8241243962359702e-03  2.0416142529188202e-03  1.5974795507244608e-03  1.4527903498062161e-03  7.6847862499907688e-02  7.6210004484482285e-02  7.3786646994335112e-02  6.9760709906089916e-02  6.4408610757899040e-02  5.8074326061975413e-02  5.1135892732814027e-02  4.3970006592403389e-02  3.6919936334755828e-02  3.0270784282459280e-02  2.4234440745071410e-02  1.8944753767497782e-02  1.4461825099836250e-02  1.0783209518957388e-02  7.8592599432399206e-03  5.6099003556110824e-03  3.9405835030604163e-03  2.7559008518118319e-03  1.9700526597050787e-03  1.5139865206258707e-03  1.3393600397382541e-03  </DataArray> 
</PointData> 
</Piece>
</UnstructuredGrid>
</VTKFile>