<?xml version="1.0"?>
<VTKFile type="UnstructuredGrid"  version="0.1"  >
<UnstructuredGrid>
<Piece  NumberOfPoints="441" NumberOfCells="800">
<Points>
<DataArray  type="Float64"  NumberOfComponents="3"  format="ascii">-2 -2 0  -1.8 -2 0  -1.6 -2 0  -1.4 -2 0  -1.2 -2 0  -1 -2 0  -0.8 -2 0  -0.6000000000000001 -2 0  -0.3999999999999999 -2 0  -0.2 -2 0  0 -2 0  0.2000000000000002 -2 0  0.3999999999999999 -2 0  0.6000000000000001 -2 0  0.7999999999999998 -2 0  1 -2 0  1.2 -2 0  1.4 -2 0  1.6 -2 0  1.8 -2 0  2 -2 0  -2 -1.8 0  -1.8 -1.8 0  -1.6 -1.8 0  -1.4 -1.8 0  -1.2 -1.8 0  -1 -1.8 0  -0.8 -1.8 0  -0.6000000000000001 -1.8 0  -0.3999999999999999 -1.8 0  -0.2 -1.8 0  0 -1.8 0  0.2000000000000002 -1.8 0  0.3999999999999999 -1.8 0  0.6000000000000001 -1.8 0  0.7999999999999998 -1.8 0  1 -1.8 0  1.2 -1.8 0  1.4 -1.8 0  1.6 -1.8 0  1.8 -1.8 0  2 -1.8 0  -2 -1.6 0  -1.8 -1.6 0  -1.6 -1.6 0  -1.4 -1.6 0  -1.2 -1.6 0  -1 -1.6 0  -0.8 -1.6 0  -0.6000000000000001 -1.6 0  -0.3999999999999999 -1.6 0  -0.2 -1.6 0  0 -1.6 0  0.2000000000000002 -1.6 0  0.3999999999999999 -1.6 0  0.6000000000000001 -1.6 0  0.7999999999999998 -1.6 0  1 -1.6 0  1.2 -1.6 0  1.4 -1.6 0  1.6 -1.6 0  1.8 -1.6 0  2 -1.6 0  -2 -1.4 0  -1.8 -1.4 0  -1.6 -1.4 0  -1.4 -1.4 0  -1.2 -1.4 0  -1 -1.4 0  -0.8 -1.4 0  -0.6000000000000001 -1.4 0  -0.3999999999999999 -1.4 0  -0.2 -1.4 0  0 -1.4 0  0.2000000000000002 -1.4 0  0.3999999999999999 -1.4 0  0.6000000000000001 -1.4 0  0.7999999999999998 -1.4 0  1 -1.4 0  1.2 -1.4 0  1.4 -1.4 0  1.6 -1.4 0  1.8 -1.4 0  2 -1.4 0  -2 -1.2 0  -1.8 -1.2 0  -1.6 -1.2 0  -1.4 -1.2 0  -1.2 -1.2 0  -1 -1.2 0  -0.8 -1.2 0  -0.6000000000000001 -1.2 0  -0.3999999999999999 -1.2 0  -0.2 -1.2 0  0 -1.2 0  0.2000000000000002 -1.2 0  0.3999999999999999 -1.2 0  0.6000000000000001 -1.2 0  0.7999999999999998 -1.2 0  1 -1.2 0  1.2 -1.2 0  1.4 -1.2 0  1.6 -1.2 0  1.8 -1.2 0  2 -1.2 0  -2 -1 0  -1.8 -1 0  -1.6 -1 0  -1.4 -1 0  -1.2 -1 0  -1 -1 0  -0.8 -1 0  -0.6000000000000001 -1 0  -0.3999999999999999 -1 0  -0.2 -1 0  0 -1 0  0.2000000000000002 -1 0  0.3999999999999999 -1 0  0.6000000000000001 -1 0  0.7999999999999998 -1 0  1 -1 0  1.2 -1 0  1.4 -1 0  1.6 -1 0  1.8 -1 0  2 -1 0  -2 -0.8 0  -1.8 -0.8 0  -1.6 -0.8 0  -1.4 -0.8 0  -1.2 -0.8 0  -1 -0.8 0  -0.8 -0.8 0  -0.6000000000000001 -0.8 0  -0.3999999999999999 -0.8 0  -0.2 -0.8 0  0 -0.8 0  0.2000000000000002 -0.8 0  0.3999999999999999 -0.8 0  0.6000000000000001 -0.8 0  0.7999999999999998 -0.8 0  1 -0.8 0  1.2 -0.8 0  1.4 -0.8 0  1.6 -0.8 0  1.8 -0.8 0  2 -0.8 0  -2 -0.6000000000000001 0  -1.8 -0.6000000000000001 0  -1.6 -0.6000000000000001 0  -1.4 -0.6000000000000001 0  -1.2 -0.6000000000000001 0  -1 -0.6000000000000001 0  -0.8 -0.6000000000000001 0  -0.6000000000000001 -0.6000000000000001 0  -0.3999999999999999 -0.6000000000000001 0  -0.2 -0.6000000000000001 0  0 -0.6000000000000001 0  0.2000000000000002 -0.6000000000000001 0  0.3999999999999999 -0.6000000000000001 0  0.6000000000000001 -0.6000000000000001 0  0.7999999999999998 -0.6000000000000001 0  1 -0.6000000000000001 0  1.2 -0.6000000000000001 0  1.4 -0.6000000000000001 0  1.6 -0.6000000000000001 0  1.8 -0.6000000000000001 0  2 -0.6000000000000001 0  -2 -0.3999999999999999 0  -1.8 -0.3999999999999999 0  -1.6 -0.3999999999999999 0  -1.4 -0.3999999999999999 0  -1.2 -0.3999999999999999 0  -1 -0.3999999999999999 0  -0.8 -0.3999999999999999 0  -0.6000000000000001 -0.3999999999999999 0  -0.3999999999999999 -0.3999999999999999 0  -0.2 -0.3999999999999999 0  0 -0.3999999999999999 0  0.2000000000000002 -0.3999999999999999 0  0.3999999999999999 -0.3999999999999999 0  0.6000000000000001 -0.3999999999999999 0  0.7999999999999998 -0.3999999999999999 0  1 -0.3999999999999999 0  1.2 -0.3999999999999999 0  1.4 -0.3999999999999999 0  1.6 -0.3999999999999999 0  1.8 -0.3999999999999999 0  2 -0.3999999999999999 0  -2 -0.2 0  -1.8 -0.2 0  -1.6 -0.2 0  -1.4 -0.2 0  -1.2 -0.2 0  -1 -0.2 0  -0.8 -0.2 0  -0.6000000000000001 -0.2 0  -0.3999999999999999 -0.2 0  -0.2 -0.2 0  0 -0.2 0  0.2000000000000002 -0.2 0  0.3999999999999999 -0.2 0  0.6000000000000001 -0.2 0  0.7999999999999998 -0.2 0  1 -0.2 0  1.2 -0.2 0  1.4 -0.2 0  1.6 -0.2 0  1.8 -0.2 0  2 -0.2 0  -2 0 0  -1.8 0 0  -1.6 0 0  -1.4 0 0  -1.2 0 0  -1 0 0  -0.8 0 0  -0.6000000000000001 0 0  -0.3999999999999999 0 0  -0.2 0 0  0 0 0  0.2000000000000002 0 0  0.3999999999999999 0 0  0.6000000000000001 0 0  0.7999999999999998 0 0  1 0 0  1.2 0 0  1.4 0 0  1.6 0 0  1.8 0 0  2 0 0  -2 0.2000000000000002 0  -1.8 0.2000000000000002 0  -1.6 0.2000000000000002 0  -1.4 0.2000000000000002 0  -1.2 0.2000000000000002 0  -1 0.2000000000000002 0  -0.8 0.2000000000000002 0  -0.6000000000000001 0.2000000000000002 0  -0.3999999999999999 0.2000000000000002 0  -0.2 0.2000000000000002 0  0 0.2000000000000002 0  0.2000000000000002 0.2000000000000002 0  0.3999999999999999 0.2000000000000002 0  0.6000000000000001 0.2000000000000002 0  0.7999999999999998 0.2000000000000002 0  1 0.2000000000000002 0  1.2 0.2000000000000002 0  1.4 0.2000000000000002 0  1.6 0.2000000000000002 0  1.8 0.2000000000000002 0  2 0.2000000000000002 0  -2 0.3999999999999999 0  -1.8 0.3999999999999999 0  -1.6 0.3999999999999999 0  -1.4 0.3999999999999999 0  -1.2 0.3999999999999999 0  -1 0.3999999999999999 0  -0.8 0.3999999999999999 0  -0.6000000000000001 0.3999999999999999 0  -0.3999999999999999 0.3999999999999999 0  -0.2 0.3999999999999999 0  0 0.3999999999999999 0  0.2000000000000002 0.3999999999999999 0  0.3999999999999999 0.3999999999999999 0  0.6000000000000001 0.3999999999999999 0  0.7999999999999998 0.3999999999999999 0  1 0.3999999999999999 0  1.2 0.3999999999999999 0  1.4 0.3999999999999999 0  1.6 0.3999999999999999 0  1.8 0.3999999999999999 0  2 0.3999999999999999 0  -2 0.6000000000000001 0  -1.8 0.6000000000000001 0  -1.6 0.6000000000000001 0  -1.4 0.6000000000000001 0  -1.2 0.6000000000000001 0  -1 0.6000000000000001 0  -0.8 0.6000000000000001 0  -0.6000000000000001 0.6000000000000001 0  -0.3999999999999999 0.6000000000000001 0  -0.2 0.6000000000000001 0  0 0.6000000000000001 0  0.2000000000000002 0.6000000000000001 0  0.3999999999999999 0.6000000000000001 0  0.6000000000000001 0.6000000000000001 0  0.7999999999999998 0.6000000000000001 0  1 0.6000000000000001 0  1.2 0.6000000000000001 0  1.4 0.6000000000000001 0  1.6 0.6000000000000001 0  1.8 0.6000000000000001 0  2 0.6000000000000001 0  -2 0.7999999999999998 0  -1.8 0.7999999999999998 0  -1.6 0.7999999999999998 0  -1.4 0.7999999999999998 0  -1.2 0.7999999999999998 0  -1 0.7999999999999998 0  -0.8 0.7999999999999998 0  -0.6000000000000001 0.7999999999999998 0  -0.3999999999999999 0.7999999999999998 0  -0.2 0.7999999999999998 0  0 0.7999999999999998 0  0.2000000000000002 0.7999999999999998 0  0.3999999999999999 0.7999999999999998 0  0.6000000000000001 0.7999999999999998 0  0.7999999999999998 0.7999999999999998 0  1 0.7999999999999998 0  1.2 0.7999999999999998 0  1.4 0.7999999999999998 0  1.6 0.7999999999999998 0  1.8 0.7999999999999998 0  2 0.7999999999999998 0  -2 1 0  -1.8 1 0  -1.6 1 0  -1.4 1 0  -1.2 1 0  -1 1 0  -0.8 1 0  -0.6000000000000001 1 0  -0.3999999999999999 1 0  -0.2 1 0  0 1 0  0.2000000000000002 1 0  0.3999999999999999 1 0  0.6000000000000001 1 0  0.7999999999999998 1 0  1 1 0  1.2 1 0  1.4 1 0  1.6 1 0  1.8 1 0  2 1 0  -2 1.2 0  -1.8 1.2 0  -1.6 1.2 0  -1.4 1.2 0  -1.2 1.2 0  -1 1.2 0  -0.8 1.2 0  -0.6000000000000001 1.2 0  -0.3999999999999999 1.2 0  -0.2 1.2 0  0 1.2 0  0.2000000000000002 1.2 0  0.3999999999999999 1.2 0  0.6000000000000001 1.2 0  0.7999999999999998 1.2 0  1 1.2 0  1.2 1.2 0  1.4 1.2 0  1.6 1.2 0  1.8 1.2 0  2 1.2 0  -2 1.4 0  -1.8 1.4 0  -1.6 1.4 0  -1.4 1.4 0  -1.2 1.4 0  -1 1.4 0  -0.8 1.4 0  -0.6000000000000001 1.4 0  -0.3999999999999999 1.4 0  -0.2 1.4 0  0 1.4 0  0.2000000000000002 1.4 0  0.3999999999999999 1.4 0  0.6000000000000001 1.4 0  0.7999999999999998 1.4 0  1 1.4 0  1.2 1.4 0  1.4 1.4 0  1.6 1.4 0  1.8 1.4 0  2 1.4 0  -2 1.6 0  -1.8 1.6 0  -1.6 1.6 0  -1.4 1.6 0  -1.2 1.6 0  -1 1.6 0  -0.8 1.6 0  -0.6000000000000001 1.6 0  -0.3999999999999999 1.6 0  -0.2 1.6 0  0 1.6 0  0.2000000000000002 1.6 0  0.3999999999999999 1.6 0  0.6000000000000001 1.6 0  0.7999999999999998 1.6 0  1 1.6 0  1.2 1.6 0  1.4 1.6 0  1.6 1.6 0  1.8 1.6 0  2 1.6 0  -2 1.8 0  -1.8 1.8 0  -1.6 1.8 0  -1.4 1.8 0  -1.2 1.8 0  -1 1.8 0  -0.8 1.8 0  -0.6000000000000001 1.8 0  -0.3999999999999999 1.8 0  -0.2 1.8 0  0 1.8 0  0.2000000000000002 1.8 0  0.3999999999999999 1.8 0  0.6000000000000001 1.8 0  0.7999999999999998 1.8 0  1 1.8 0  1.2 1.8 0  1.4 1.8 0  1.6 1.8 0  1.8 1.8 0  2 1.8 0  -2 2 0  -1.8 2 0  -1.6 2 0  -1.4 2 0  -1.2 2 0  -1 2 0  -0.8 2 0  -0.6000000000000001 2 0  -0.3999999999999999 2 0  -0.2 2 0  0 2 0  0.2000000000000002 2 0  0.3999999999999999 2 0  0.6000000000000001 2 0  0.7999999999999998 2 0  1 2 0  1.2 2 0  1.4 2 0  1.6 2 0  1.8 2 0  2 2 0  </DataArray>
</Points>
<Cells>
[...]
<PointData  Scalars="f_8"> 
<DataArray  type="Float64"  Name="f_8"  format="ascii">2.1473069912986819e-02  2.1504583315764807e-02  2.1518104782480847e-02  2.1525564139591086e-02  2.1530471000315202e-02  2.1534092122096667e-02  2.1536987641853467e-02  2.1539449468198291e-02  2.1541649426243474e-02  2.1543699359112826e-02  2.1545680440436771e-02  2.1547660574572150e-02  2.1549707486708033e-02  2.1551901791998656e-02  2.1554354315116660e-02  2.1557235190469645e-02  2.1560833416005780e-02  2.1565703583410960e-02  2.1573100984474031e-02  2.1586514398618934e-02  2.1617880536010207e-02  2.1699798888287318e-02  2.1707318056686634e-02  2.1714793098945331e-02  2.1720433100499106e-02  2.1724653709234563e-02  2.1727949201467298e-02  2.1730657768584967e-02  2.1732995550173842e-02  2.1735103225241824e-02  2.1737077216545681e-02  2.1738989406848007e-02  2.1740900638205558e-02  2.1742871581818455e-02  2.1744973596886142e-02  2.1747302194549217e-02  2.1749996695805962e-02  2.1753271408358678e-02  2.1757462524581443e-02  2.1763063962529500e-02  2.1770498689180955e-02  2.1777994407411749e-02  2.2288650373805455e-02  2.2289845468937561e-02  2.2293024005351651e-02  2.2296338879105870e-02  2.2299288816161431e-02  2.2301837230875816e-02  2.2304065545940884e-02  2.2306065820814687e-02  2.2307914908321496e-02  2.2309672942030848e-02  2.2311388084437448e-02  2.2313102431644572e-02  2.2314857954312504e-02  2.2316702449636235e-02  2.2318695489428612e-02  2.2320913286097230e-02  2.2323447483593217e-02  2.2326380042260455e-02  2.2329677328937481e-02  2.2332845177149518e-02  2.2334046269577443e-02  2.3232402243712938e-02  2.3231395782084774e-02  2.3232105784196440e-02  2.3233547571484110e-02  2.3235202582614724e-02  2.3236858680375387e-02  2.3238450943987046e-02  2.3239973998762306e-02  2.3241442388627118e-02  2.3242874962357312e-02  2.3244289946634768e-02  2.3245704436924128e-02  2.3247135456531051e-02  2.3248601040669507e-02  2.3250119811636487e-02  2.3251706225251394e-02  2.3253355269253619e-02  2.3255003322215757e-02  2.3256441016684674e-02  2.3257153999864753e-02  2.3256161735321943e-02  2.4508757785476794e-02  2.4506651998363643e-02  2.4505872725127605e-02  2.4505933836058671e-02  2.4506467007112311e-02  2.4507249663507487e-02  2.4508161621472166e-02  2.4509141479050620e-02  2.4510157984406800e-02  2.4511194091376424e-02  2.4512238861682443e-02  2.4513283519192748e-02  2.4514319254041159e-02  2.4515335054409674e-02  2.4516313846796301e-02  2.4517224548743211e-02  2.4518006335523024e-02  2.4518540230566616e-02  2.4518605570036024e-02  2.4517836280456645e-02  2.4515747899253440e-02  2.6086701607163025e-02  2.6083861393942063e-02  2.6082086130299602e-02  2.6081125734261329e-02  2.6080738138480615e-02  2.6080737514886203e-02  2.6080994913653215e-02  2.6081423521361419e-02  2.6081963577755812e-02  2.6082571185643062e-02  2.6083210914403906e-02  2.6083850944965924e-02  2.6084459439566596e-02  2.6085000935886588e-02  2.6085431563427033e-02  2.6085691757316412e-02  2.6085695193007324e-02  2.6085313785800691e-02  2.6084362892062483e-02  2.6082601654261919e-02  2.6079780737383249e-02  2.7928340964627575e-02  2.7924932615611381e-02  2.7922431968322690e-02  2.7920698318205917e-02  2.7919570051474163e-02  2.7918900100717542e-02  2.7918567868115529e-02  2.7918478159858397e-02  2.7918555456496227e-02  2.7918737678694003e-02  2.7918970850774171e-02  2.7919204748678879e-02  2.7919389122193550e-02  2.7919469937597474e-02  2.7919385083345929e-02  2.7919059116283708e-02  2.7918397109693210e-02  2.7917278964153979e-02  2.7915558290923934e-02  2.7913074166937731e-02  2.7909686353611140e-02  2.9989777013357463e-02  2.9985911860386676e-02  2.9982861815608740e-02  2.9980538037158305e-02  2.9978825683033370e-02  2.9977606597484437e-02  2.9976771671097243e-02  2.9976224965946003e-02  2.9975883137033858e-02  2.9975672775416299e-02  2.9975527099095924e-02  2.9975382578742320e-02  2.9975175632941241e-02  2.9974839341751137e-02  2.9974300123859259e-02  2.9973474500929260e-02  2.9972266516320793e-02  2.9970567206789193e-02  2.9968258725458215e-02  2.9965226637913761e-02  2.9961382508105514e-02  3.2221842177039245e-02  3.2217621476066417e-02  3.2214162130304237e-02  3.2211400218412026e-02  3.2209246519707052e-02  3.2207601283460202e-02  3.2206364729077341e-02  3.2205442688488850e-02  3.2204748483532296e-02  3.2204202407136416e-02  3.2203729877578288e-02  3.2203258950181730e-02  3.2202717587653994e-02  3.2202030948641193e-02  3.2201118951584298e-02  3.2199894507244038e-02  3.2198263090587653e-02  3.2196124702498753e-02  3.2193379570033598e-02  3.2189938664257192e-02  3.2185738447242394e-02  3.4570938317196709e-02  3.4566469595899985e-02  3.4562732553558580e-02  3.4559674388448536e-02  3.4557218258849491e-02  3.4555274176403208e-02  3.4553748062166142e-02  3.4552547680535992e-02  3.4551585525572928e-02  3.4550779343192568e-02  3.4550051074410282e-02  3.4549324885443447e-02  3.4548524797733911e-02  3.4547572337175043e-02  3.4546384620738911e-02  3.4544873389890388e-02  3.4542945649162000e-02  3.4540506682232491e-02  3.4537466109446933e-02  3.4533747035850354e-02  3.4529296979194546e-02  3.6980056546373846e-02  3.6975459789541636e-02  3.6971581209013685e-02  3.6968370698786404e-02  3.6965754580177444e-02  3.6963645589725133e-02  3.6961951594292934e-02  3.6960581604731868e-02  3.6959448906928809e-02  3.6958471811387013e-02  3.6957572731184121e-02  3.6956676254509706e-02  3.6955706763866364e-02  3.6954586075123974e-02  3.6953231570233315e-02  3.6951555377046148e-02  3.6949465262650881e-02  3.6946867944719165e-02  3.6943675303612387e-02  3.6939813274763117e-02  3.6935231934060883e-02  3.9390004832137164e-02  3.9385414011768254e-02  3.9381540760493612e-02  3.9378330652923149e-02  3.9375705159440610e-02  3.9373573335719565e-02  3.9371841404445794e-02  3.9370418878926616e-02  3.9369221360535070e-02  3.9368170789699224e-02  3.9367194019409670e-02  3.9366220431286722e-02  3.9365179135587063e-02  3.9363996189877029e-02  3.9362592273563597e-02  3.9360881366946224e-02  3.9358771165545037e-02  3.9356166106957059e-02  3.9352973781183673e-02  3.9349114807109058e-02  3.9344534719269672e-02  4.1740837391987994e-02  4.1736399508328838e-02  4.1732692235080637e-02  4.1729648231163409e-02  4.1727174874793618e-02  4.1725170691529777e-02  4.1723536866710209e-02  4.1722183183686500e-02  4.1721029649194434e-02  4.1720005390811374e-02  4.1719046064008378e-02  4.1718090551668974e-02  4.1717077401008031e-02  4.1715941274916429e-02  4.1714609698640173e-02  4.1713000559548907e-02  4.1711021166648966e-02  4.1708570139370273e-02  4.1705543731770892e-02  4.1701847814930942e-02  4.1697414692654457e-02  4.3973453226689704e-02  4.3969326447337045e-02  4.3965962521716209e-02  4.3963267045829126e-02  4.3961120065114247e-02  4.3959401377562053e-02  4.3958004269907071e-02  4.3956839857972441e-02  4.3955835948217017e-02  4.3954933415818041e-02  4.3954081769134130e-02  4.3953234606988620e-02  4.3952345138181075e-02  4.3951361707881449e-02  4.3950223279185935e-02  4.3948855053543998e-02  4.3947164971025507e-02  4.3945042825380115e-02  4.3942365076195110e-02  4.3939009310144869e-02  4.3934880319083221e-02  4.6031306746098455e-02  4.6027660108717248e-02  4.6024840410982037e-02  4.6022698803030115e-02  4.6021067051099034e-02  4.6019796585427812e-02  4.6018771874685352e-02  4.6017909188401929e-02  4.6017149809856550e-02  4.6016452393796176e-02  4.6015786154732355e-02  4.6015125073303603e-02  4.6014442705555103e-02  4.6013706990071512e-02  4.6012874447934282e-02  4.6011883365957747e-02  4.6010646180962796e-02  4.6009042842527936e-02  4.6006920042198210e-02  4.6004105623682436e-02  4.6000449184947875e-02  4.7862150745879191e-02  4.7859171372470213e-02  4.7857138536644660e-02  4.7855791349037280e-02  4.7854880472197783e-02  4.7854220675891346e-02  4.7853692499142703e-02  4.7853226576664021e-02  4.7852786845477759e-02  4.7852357508805884e-02  4.7851933908041842e-02  4.7851516085309666e-02  4.7851103650982260e-02  4.7850690643321779e-02  4.7850259059951786e-02  4.7849769657411563e-02  4.7849148793170079e-02  4.7848271526678574e-02  4.7846946142513017e-02  4.7844917001244790e-02  4.7841920060869597e-02  4.9419708017596674e-02  4.9417634168971124e-02  4.9416718762901796e-02  4.9416464177348032e-02  4.9416496528481887e-02  4.9416598367487539e-02  4.9416665467887123e-02  4.9416661320148075e-02  4.9416586158201672e-02  4.9416458860616651e-02  4.9416307025451335e-02  4.9416161463452818e-02  4.9416052573522752e-02  4.9416006714615213e-02  4.9416040672688726e-02  4.9416151636339785e-02  4.9416298837876078e-02  4.9416372075095194e-02  4.9416145611556495e-02  4.9415235417704914e-02  4.9413136594957004e-02  5.0665126864458954e-02  5.0664373827344018e-02  5.0665103810759199e-02  5.0666328547404729e-02  5.0667529919280099e-02  5.0668507919459919e-02  5.0669221405550392e-02  5.0669697872485729e-02  5.0669991097693060e-02  5.0670163270286207e-02  5.0670278301138648e-02  5.0670399901239338e-02  5.0670591402952554e-02  5.0670915595563380e-02  5.0671432830564647e-02  5.0672194309161138e-02  5.0673223979735650e-02  5.0674475390319780e-02  5.0675739562961626e-02  5.0676483051865534e-02  5.0675699209191641e-02  5.1567947421764196e-02  5.1569602938008913e-02  5.1572934733100435e-02  5.1576118818896038e-02  5.1578660715784423e-02  5.1580541178129984e-02  5.1581871548328287e-02  5.1582783183879675e-02  5.1583398398815650e-02  5.1583826559601698e-02  5.1584167132308435e-02  5.1584514325734743e-02  5.1584961991246292e-02  5.1585608560343180e-02  5.1586561797952360e-02  5.1587942012012201e-02  5.1589878265893362e-02  5.1592478974286350e-02  5.1595718994245393e-02  5.1599086412990547e-02  5.1600712339009043e-02  5.2105772254463570e-02  5.2113706451562665e-02  5.2121332610353226e-02  5.2126866063610021e-02  5.2130698232252595e-02  5.2133330024403492e-02  5.2135128699143156e-02  5.2136352204649739e-02  5.2137190079484801e-02  5.2137791479988128e-02  5.2138283011661457e-02  5.2138780988226496e-02  5.2139401354779721e-02  5.2140269658553229e-02  5.2141533460306547e-02  5.2143380461487233e-02  5.2146067073861331e-02  5.2149960304014524e-02  5.2155563261688957e-02  5.2163266627235388e-02  5.2171208505638701e-02  5.2259393935109373e-02  5.2289927396731745e-02  5.2303348182001892e-02  5.2310664108745540e-02  5.2315182039577662e-02  5.2318140640426163e-02  5.2320122983489016e-02  5.2321462543414105e-02  5.2322380968870402e-02  5.2323043999161836e-02  5.2323588680279851e-02  5.2324139497278509e-02  5.2324820532200951e-02  5.2325767659876267e-02  5.2327144794216178e-02  5.2329171296046396e-02  5.2332178175978933e-02  5.2336746413093348e-02  5.2344115194508919e-02  5.2357609470266707e-02  5.2388378718881717e-02  </DataArray> 
</PointData> 
</Piece>
</UnstructuredGrid>
</VTKFile>