<?xml version="1.0"?>
<VTKFile type="UnstructuredGrid"  version="0.1"  >
<UnstructuredGrid>
<Piece  NumberOfPoints="441" NumberOfCells="800">
<Points>
<DataArray  type="Float64"  NumberOfComponents="3"  format="ascii">-2 -2 0  -1.8 -2 0  -1.6 -2 0  -1.4 -2 0  -1.2 -2 0  -1 -2 0  -0.8 -2 0  -0.6000000000000001 -2 0  -0.3999999999999999 -2 0  -0.2 -2 0  0 -2 0  0.2000000000000002 -2 0  0.3999999999999999 -2 0  0.6000000000000001 -2 0  0.7999999999999998 -2 0  1 -2 0  1.2 -2 0  1.4 -2 0  1.6 -2 0  1.8 -2 0  2 -2 0  -2 -1.8 0  -1.8 -1.8 0  -1.6 -1.8 0  -1.4 -1.8 0  -1.2 -1.8 0  -1 -1.8 0  -0.8 -1.8 0  -0.6000000000000001 -1.8 0  -0.3999999999999999 -1.8 0  -0.2 -1.8 0  0 -1.8 0  0.2000000000000002 -1.8 0  0.3999999999999999 -1.8 0  0.6000000000000001 -1.8 0  0.7999999999999998 -1.8 0  1 -1.8 0  1.2 -1.8 0  1.4 -1.8 0  1.6 -1.8 0  1.8 -1.8 0  2 -1.8 0  -2 -1.6 0  -1.8 -1.6 0  -1.6 -1.6 0  -1.4 -1.6 0  -1.2 -1.6 0  -1 -1.6 0  -0.8 -1.6 0  -0.6000000000000001 -1.6 0  -0.3999999999999999 -1.6 0  -0.2 -1.6 0  0 -1.6 0  0.2000000000000002 -1.6 0  0.3999999999999999 -1.6 0  0.6000000000000001 -1.6 0  0.7999999999999998 -1.6 0  1 -1.6 0  1.2 -1.6 0  1.4 -1.6 0  1.6 -1.6 0  1.8 -1.6 0  2 -1.6 0  -2 -1.4 0  -1.8 -1.4 0  -1.6 -1.4 0  -1.4 -1.4 0  -1.2 -1.4 0  -1 -1.4 0  -0.8 -1.4 0  -0.6000000000000001 -1.4 0  -0.3999999999999999 -1.4 0  -0.2 -1.4 0  0 -1.4 0  0.2000000000000002 -1.4 0  0.3999999999999999 -1.4 0  0.6000000000000001 -1.4 0  0.7999999999999998 -1.4 0  1 -1.4 0  1.2 -1.4 0  1.4 -1.4 0  1.6 -1.4 0  1.8 -1.4 0  2 -1.4 0  -2 -1.2 0  -1.8 -1.2 0  -1.6 -1.2 0  -1.4 -1.2 0  -1.2 -1.2 0  -1 -1.2 0  -0.8 -1.2 0  -0.6000000000000001 -1.2 0  -0.3999999999999999 -1.2 0  -0.2 -1.2 0  0 -1.2 0  0.2000000000000002 -1.2 0  0.3999999999999999 -1.2 0  0.6000000000000001 -1.2 0  0.7999999999999998 -1.2 0  1 -1.2 0  1.2 -1.2 0  1.4 -1.2 0  1.6 -1.2 0  1.8 -1.2 0  2 -1.2 0  -2 -1 0  -1.8 -1 0  -1.6 -1 0  -1.4 -1 0  -1.2 -1 0  -1 -1 0  -0.8 -1 0  -0.6000000000000001 -1 0  -0.3999999999999999 -1 0  -0.2 -1 0  0 -1 0  0.2000000000000002 -1 0  0.3999999999999999 -1 0  0.6000000000000001 -1 0  0.7999999999999998 -1 0  1 -1 0  1.2 -1 0  1.4 -1 0  1.6 -1 0  1.8 -1 0  2 -1 0  -2 -0.8 0  -1.8 -0.8 0  -1.6 -0.8 0  -1.4 -0.8 0  -1.2 -0.8 0  -1 -0.8 0  -0.8 -0.8 0  -0.6000000000000001 -0.8 0  -0.3999999999999999 -0.8 0  -0.2 -0.8 0  0 -0.8 0  0.2000000000000002 -0.8 0  0.3999999999999999 -0.8 0  0.6000000000000001 -0.8 0  0.7999999999999998 -0.8 0  1 -0.8 0  1.2 -0.8 0  1.4 -0.8 0  1.6 -0.8 0  1.8 -0.8 0  2 -0.8 0  -2 -0.6000000000000001 0  -1.8 -0.6000000000000001 0  -1.6 -0.6000000000000001 0  -1.4 -0.6000000000000001 0  -1.2 -0.6000000000000001 0  -1 -0.6000000000000001 0  -0.8 -0.6000000000000001 0  -0.6000000000000001 -0.6000000000000001 0  -0.3999999999999999 -0.6000000000000001 0  -0.2 -0.6000000000000001 0  0 -0.6000000000000001 0  0.2000000000000002 -0.6000000000000001 0  0.3999999999999999 -0.6000000000000001 0  0.6000000000000001 -0.6000000000000001 0  0.7999999999999998 -0.6000000000000001 0  1 -0.6000000000000001 0  1.2 -0.6000000000000001 0  1.4 -0.6000000000000001 0  1.6 -0.6000000000000001 0  1.8 -0.6000000000000001 0  2 -0.6000000000000001 0  -2 -0.3999999999999999 0  -1.8 -0.3999999999999999 0  -1.6 -0.3999999999999999 0  -1.4 -0.3999999999999999 0  -1.2 -0.3999999999999999 0  -1 -0.3999999999999999 0  -0.8 -0.3999999999999999 0  -0.6000000000000001 -0.3999999999999999 0  -0.3999999999999999 -0.3999999999999999 0  -0.2 -0.3999999999999999 0  0 -0.3999999999999999 0  0.2000000000000002 -0.3999999999999999 0  0.3999999999999999 -0.3999999999999999 0  0.6000000000000001 -0.3999999999999999 0  0.7999999999999998 -0.3999999999999999 0  1 -0.3999999999999999 0  1.2 -0.3999999999999999 0  1.4 -0.3999999999999999 0  1.6 -0.3999999999999999 0  1.8 -0.3999999999999999 0  2 -0.3999999999999999 0  -2 -0.2 0  -1.8 -0.2 0  -1.6 -0.2 0  -1.4 -0.2 0  -1.2 -0.2 0  -1 -0.2 0  -0.8 -0.2 0  -0.6000000000000001 -0.2 0  -0.3999999999999999 -0.2 0  -0.2 -0.2 0  0 -0.2 0  0.2000000000000002 -0.2 0  0.3999999999999999 -0.2 0  0.6000000000000001 -0.2 0  0.7999999999999998 -0.2 0  1 -0.2 0  1.2 -0.2 0  1.4 -0.2 0  1.6 -0.2 0  1.8 -0.2 0  2 -0.2 0  -2 0 0  -1.8 0 0  -1.6 0 0  -1.4 0 0  -1.2 0 0  -1 0 0  -0.8 0 0  -0.6000000000000001 0 0  -0.3999999999999999 0 0  -0.2 0 0  0 0 0  0.2000000000000002 0 0  0.3999999999999999 0 0  0.6000000000000001 0 0  0.7999999999999998 0 0  1 0 0  1.2 0 0  1.4 0 0  1.6 0 0  1.8 0 0  2 0 0  -2 0.2000000000000002 0  -1.8 0.2000000000000002 0  -1.6 0.2000000000000002 0  -1.4 0.2000000000000002 0  -1.2 0.2000000000000002 0  -1 0.2000000000000002 0  -0.8 0.2000000000000002 0  -0.6000000000000001 0.2000000000000002 0  -0.3999999999999999 0.2000000000000002 0  -0.2 0.2000000000000002 0  0 0.2000000000000002 0  0.2000000000000002 0.2000000000000002 0  0.3999999999999999 0.2000000000000002 0  0.6000000000000001 0.2000000000000002 0  0.7999999999999998 0.2000000000000002 0  1 0.2000000000000002 0  1.2 0.2000000000000002 0  1.4 0.2000000000000002 0  1.6 0.2000000000000002 0  1.8 0.2000000000000002 0  2 0.2000000000000002 0  -2 0.3999999999999999 0  -1.8 0.3999999999999999 0  -1.6 0.3999999999999999 0  -1.4 0.3999999999999999 0  -1.2 0.3999999999999999 0  -1 0.3999999999999999 0  -0.8 0.3999999999999999 0  -0.6000000000000001 0.3999999999999999 0  -0.3999999999999999 0.3999999999999999 0  -0.2 0.3999999999999999 0  0 0.3999999999999999 0  0.2000000000000002 0.3999999999999999 0  0.3999999999999999 0.3999999999999999 0  0.6000000000000001 0.3999999999999999 0  0.7999999999999998 0.3999999999999999 0  1 0.3999999999999999 0  1.2 0.3999999999999999 0  1.4 0.3999999999999999 0  1.6 0.3999999999999999 0  1.8 0.3999999999999999 0  2 0.3999999999999999 0  -2 0.6000000000000001 0  -1.8 0.6000000000000001 0  -1.6 0.6000000000000001 0  -1.4 0.6000000000000001 0  -1.2 0.6000000000000001 0  -1 0.6000000000000001 0  -0.8 0.6000000000000001 0  -0.6000000000000001 0.6000000000000001 0  -0.3999999999999999 0.6000000000000001 0  -0.2 0.6000000000000001 0  0 0.6000000000000001 0  0.2000000000000002 0.6000000000000001 0  0.3999999999999999 0.6000000000000001 0  0.6000000000000001 0.6000000000000001 0  0.7999999999999998 0.6000000000000001 0  1 0.6000000000000001 0  1.2 0.6000000000000001 0  1.4 0.6000000000000001 0  1.6 0.6000000000000001 0  1.8 0.6000000000000001 0  2 0.6000000000000001 0  -2 0.7999999999999998 0  -1.8 0.7999999999999998 0  -1.6 0.7999999999999998 0  -1.4 0.7999999999999998 0  -1.2 0.7999999999999998 0  -1 0.7999999999999998 0  -0.8 0.7999999999999998 0  -0.6000000000000001 0.7999999999999998 0  -0.3999999999999999 0.7999999999999998 0  -0.2 0.7999999999999998 0  0 0.7999999999999998 0  0.2000000000000002 0.7999999999999998 0  0.3999999999999999 0.7999999999999998 0  0.6000000000000001 0.7999999999999998 0  0.7999999999999998 0.7999999999999998 0  1 0.7999999999999998 0  1.2 0.7999999999999998 0  1.4 0.7999999999999998 0  1.6 0.7999999999999998 0  1.8 0.7999999999999998 0  2 0.7999999999999998 0  -2 1 0  -1.8 1 0  -1.6 1 0  -1.4 1 0  -1.2 1 0  -1 1 0  -0.8 1 0  -0.6000000000000001 1 0  -0.3999999999999999 1 0  -0.2 1 0  0 1 0  0.2000000000000002 1 0  0.3999999999999999 1 0  0.6000000000000001 1 0  0.7999999999999998 1 0  1 1 0  1.2 1 0  1.4 1 0  1.6 1 0  1.8 1 0  2 1 0  -2 1.2 0  -1.8 1.2 0  -1.6 1.2 0  -1.4 1.2 0  -1.2 1.2 0  -1 1.2 0  -0.8 1.2 0  -0.6000000000000001 1.2 0  -0.3999999999999999 1.2 0  -0.2 1.2 0  0 1.2 0  0.2000000000000002 1.2 0  0.3999999999999999 1.2 0  0.6000000000000001 1.2 0  0.7999999999999998 1.2 0  1 1.2 0  1.2 1.2 0  1.4 1.2 0  1.6 1.2 0  1.8 1.2 0  2 1.2 0  -2 1.4 0  -1.8 1.4 0  -1.6 1.4 0  -1.4 1.4 0  -1.2 1.4 0  -1 1.4 0  -0.8 1.4 0  -0.6000000000000001 1.4 0  -0.3999999999999999 1.4 0  -0.2 1.4 0  0 1.4 0  0.2000000000000002 1.4 0  0.3999999999999999 1.4 0  0.6000000000000001 1.4 0  0.7999999999999998 1.4 0  1 1.4 0  1.2 1.4 0  1.4 1.4 0  1.6 1.4 0  1.8 1.4 0  2 1.4 0  -2 1.6 0  -1.8 1.6 0  -1.6 1.6 0  -1.4 1.6 0  -1.2 1.6 0  -1 1.6 0  -0.8 1.6 0  -0.6000000000000001 1.6 0  -0.3999999999999999 1.6 0  -0.2 1.6 0  0 1.6 0  0.2000000000000002 1.6 0  0.3999999999999999 1.6 0  0.6000000000000001 1.6 0  0.7999999999999998 1.6 0  1 1.6 0  1.2 1.6 0  1.4 1.6 0  1.6 1.6 0  1.8 1.6 0  2 1.6 0  -2 1.8 0  -1.8 1.8 0  -1.6 1.8 0  -1.4 1.8 0  -1.2 1.8 0  -1 1.8 0  -0.8 1.8 0  -0.6000000000000001 1.8 0  -0.3999999999999999 1.8 0  -0.2 1.8 0  0 1.8 0  0.2000000000000002 1.8 0  0.3999999999999999 1.8 0  0.6000000000000001 1.8 0  0.7999999999999998 1.8 0  1 1.8 0  1.2 1.8 0  1.4 1.8 0  1.6 1.8 0  1.8 1.8 0  2 1.8 0  -2 2 0  -1.8 2 0  -1.6 2 0  -1.4 2 0  -1.2 2 0  -1 2 0  -0.8 2 0  -0.6000000000000001 2 0  -0.3999999999999999 2 0  -0.2 2 0  0 2 0  0.2000000000000002 2 0  0.3999999999999999 2 0  0.6000000000000001 2 0  0.7999999999999998 2 0  1 2 0  1.2 2 0  1.4 2 0  1.6 2 0  1.8 2 0  2 2 0  </DataArray>
</Points>
<Cells>
[...]
<PointData  Scalars="f_8"> 
<DataArray  type="Float64"  Name="f_8"  format="ascii">7.8163319692328814e-02  7.6989612965263562e-02  7.4120518362761512e-02  6.9735281521758577e-02  6.4114882086659414e-02  5.7606623889207995e-02  5.0585625671156667e-02  4.3417947091726153e-02  3.6429628866856377e-02  2.9884660338697744e-02  2.3973215863158061e-02  1.8809833019999726e-02  1.4439871928068884e-02  1.0851791621540681e-02  7.9925512326370456e-03  5.7837070797639983e-03  4.1363675259778960e-03  2.9638960607640758e-03  2.1919520212327105e-03  1.7660138181678142e-03  1.6568952974145934e-03  7.7710912881038985e-02  7.6781352366786626e-02  7.4078968476866319e-02  6.9804874412929818e-02  6.4252296529024935e-02  5.7776698891084624e-02  5.0760146509069792e-02  4.3575616192066173e-02  3.6556198088580280e-02  2.9972688189592204e-02  2.4021271981354429e-02  1.8821215690585490e-02  1.4421037769391609e-02  1.0810731641215529e-02  7.9373054247741503e-03  5.7211170706483643e-03  4.0710477496074789e-03  2.8972728720453251e-03  2.1210744907193030e-03  1.6816534122255087e-03  1.5401642116393845e-03  7.7663520050354887e-02  7.6751767533668039e-02  7.4082002546099771e-02  6.9840716756745400e-02  6.4313111496857492e-02  5.7851027772039369e-02  5.0835997329674143e-02  4.3642588362079696e-02  3.6606768044024178e-02  3.0002736112478719e-02  2.4029964104355258e-02  1.8810408659350873e-02  1.4394403864159445e-02  1.0772801262636028e-02  7.8925883356718209e-03  5.6734098842579246e-03  4.0229806059839763e-03  2.8501123701103978e-03  2.0748013441381817e-03  1.6353928162046478e-03  1.4931957359154832e-03  7.7681113393458512e-02  7.6771580923514313e-02  7.4107078536717053e-02  6.9871533834433036e-02  6.4347770631310294e-02  5.7886081006979437e-02  5.0867467827078711e-02  4.3666898665942783e-02  3.6621408266056525e-02  3.0006598681032046e-02  2.4023351953097651e-02  1.8794783815488988e-02  1.4371977364282650e-02  1.0746071944882770e-02  7.8639220320724321e-03  5.6447208979386286e-03  3.9955444835399175e-03  2.8245115152900793e-03  2.0509874334934649e-03  1.6128407329012464e-03  1.4711132063857390e-03  7.7701169807453105e-02  7.6791774880681785e-02  7.4127323801409462e-02  6.9891337998329792e-02  6.4366207961813388e-02  5.7901952929596899e-02  5.0879566104589734e-02  4.3674276717897850e-02  3.6623584293078347e-02  3.0003646812871921e-02  2.4015873391788893e-02  1.8783779903636368e-02  1.4358664884247545e-02  1.0731685909345172e-02  7.8495446297143744e-03  5.6311614838659620e-03  3.9832797370822071e-03  2.8136815239580273e-03  2.0414350554553455e-03  1.6041785542720611e-03  1.4628034940836131e-03  7.7712037797836864e-02  7.6802512278981688e-02  7.4137542756379599e-02  6.9900613018957128e-02  6.4374092831956761e-02  5.7908030651264916e-02  5.0883516903455085e-02  4.3675941850083368e-02  3.6623005232608627e-02  3.0001067840114023e-02  2.4011706747886327e-02  1.8778542658441266e-02  1.4352902734372553e-02  1.0725900216119336e-02  7.8441357258878172e-03  5.6263953721808367e-03  3.9792789127048494e-03  2.8104355949656584e-03  2.0388241572517969e-03  1.6020024145840391e-03  1.4608108529679206e-03  7.7716030361958385e-02  7.6806413309152277e-02  7.4141156290808502e-02  6.9903753822650599e-02  6.4376600835024625e-02  5.7909788100556692e-02  5.0884464666834946e-02  4.3676090100231234e-02  3.6622434518299316e-02  2.9999918955702136e-02  2.4010160858629583e-02  1.8776795714197044e-02  1.4351139480686727e-02  1.0724272803366812e-02  7.8427502943815165e-03  5.6253077017884585e-03  3.9784980196127945e-03  2.8099326338080158e-03  2.0385434390141491e-03  1.6018717506542180e-03  1.4607495112886630e-03  7.7717022641080463e-02  7.6807366917645822e-02  7.4142012338105148e-02  6.9904461077416047e-02  6.4377121043555627e-02  5.7910100490271940e-02  5.0884568730359195e-02  4.3676005801571736e-02  3.6622199482308375e-02  2.9999582891482565e-02  2.4009778187607220e-02  1.8776417860808005e-02  1.4350808362792761e-02  1.0724016708914040e-02  7.8425826787903944e-03  5.6252287039559911e-03  3.9784978922716629e-03  2.8099959643683426e-03  2.0386530424723968e-03  1.6020113928003205e-03  1.4609050566571848e-03  7.7717159673024422e-02  7.6807492006118833e-02  7.4142114928687469e-02  6.9904533196360308e-02  6.4377158412038199e-02  5.7910103185057321e-02  5.0884541221080985e-02  4.3675956282169068e-02  3.6622138555647457e-02  2.9999521826408949e-02  2.4009727092310432e-02  1.8776384156250766e-02  1.4350795873916390e-02  1.0724025536579321e-02  7.8426098206351817e-03  5.6252692177568703e-03  3.9785462895243189e-03  2.8100475054288363e-03  2.0387046676934970e-03  1.6020621351499331e-03  1.4609559031477065e-03  7.7717157483849372e-02  7.6807487259729176e-02  7.4142107037359600e-02  6.9904522133057090e-02  6.4377144791858618e-02  5.7910088231805407e-02  5.0884526608307556e-02  4.3675943864599942e-02  3.6622130036199289e-02  2.9999518427065053e-02  2.4009729304522907e-02  1.8776391632808621e-02  1.4350807491308569e-02  1.0724039614274509e-02  7.8426244450320055e-03  5.6252825961548040e-03  3.9785570594057552e-03  2.8100549443081805e-03  2.0387087795561828e-03  1.6020636192039517e-03  1.4609560297270568e-03  7.7717153508350123e-02  7.6807482976810060e-02  7.4142102659252307e-02  6.9904517934983645e-02  6.4377141085282988e-02  5.7910085324295590e-02  5.0884524754560116e-02  4.3675943216947635e-02  3.6622130605489363e-02  2.9999520064773827e-02  2.4009731713527698e-02  1.8776394407712685e-02  1.4350810181317904e-02  1.0724041794969925e-02  7.8426257824843488e-03  5.6252828890222704e-03  3.9785562514047983e-03  2.8100531084943796e-03  2.0387060840228346e-03  1.6020602882494558e-03  1.4609523137735694e-03  7.7717150674209298e-02  7.6807480284475982e-02  7.4142100391258264e-02  6.9904516298398847e-02  6.4377140198362076e-02  5.7910085212904513e-02  5.0884525357542065e-02  4.3675944399603643e-02  3.6622132180139447e-02  2.9999521816705000e-02  2.4009733429596544e-02  1.8776395903837752e-02  1.4350811324611149e-02  1.0724042516747129e-02  7.8426260799471740e-03  5.6252828156774636e-03  3.9785558986262619e-03  2.8100525823453472e-03  2.0387054820819503e-03  1.6020596806768867e-03  1.4609517315415828e-03  7.7717130544342580e-02  7.6807461603179319e-02  7.4142083662548902e-02  6.9904501820209811e-02  6.4377128129793112e-02  5.7910075623654841e-02  5.0884518250915313e-02  4.3675939711288900e-02  3.6622129763579807e-02  2.9999521429703638e-02  2.4009734734997644e-02  1.8776398490862562e-02  1.4350814749422073e-02  1.0724046353995759e-02  7.8426299734344930e-03  5.6252865163100990e-03  3.9785592807962235e-03  2.8100556343292216e-03  2.0387082708743921e-03  1.6020622962404601e-03  1.4609542196274167e-03  7.7717111843027292e-02  7.6807445932363050e-02  7.4142066001277832e-02  6.9904477935876383e-02  6.4377095326729888e-02  5.7910033144657647e-02  5.0884467282527032e-02  4.3675883021458549e-02  3.6622071076057326e-02  2.9999464690685335e-02  2.4009683437745417e-02  1.8776355191031123e-02  1.4350780840125374e-02  1.0724022096525235e-02  7.8426147184662304e-03  5.6252790158940053e-03  3.9785579878787187e-03  2.8100589096122170e-03  2.0387144567514137e-03  1.6020696631929361e-03  1.4609608317132402e-03  7.7717516307602208e-02  7.6807838525494138e-02  7.4142402066129501e-02  6.9904720436663292e-02  6.4377218791854013e-02  5.7910026146720008e-02  5.0884333040604510e-02  4.3675637973250810e-02  3.6621741659217534e-02  2.9999082953633117e-02  2.4009282330018363e-02  1.8775964385109430e-02  1.4350423722410374e-02  1.0723714218631549e-02  7.8423636361875208e-03  5.6250851644287624e-03  3.9784161081653233e-03  2.8099595607992064e-03  2.0386452903606569e-03  1.6020163372717597e-03  1.4609076443497355e-03  7.7720255829551999e-02  7.6810484318617325e-02  7.4144770623005049e-02  6.9906652224400845e-02  6.4378591355354509e-02  5.7910765933445081e-02  5.0884423063780250e-02  4.3675118700194110e-02  3.6620704029906699e-02  2.9997654462723271e-02  2.4007608826557954e-02  1.8774191092553780e-02  1.4348678793531850e-02  1.0722097125523675e-02  7.8409392880823547e-03  5.6238833139853148e-03  3.9774347006473554e-03  2.8091703538528513e-03  2.0380002805356783e-03  1.6014540841072747e-03  1.4603592302684606e-03  7.7729949309634713e-02  7.6819909133655981e-02  7.4153489918908813e-02  6.9914234823186538e-02  6.4384639029997665e-02  5.7914960487862210e-02  5.0886576446362089e-02  4.3675208384994751e-02  3.6618881661326493e-02  2.9994224644739182e-02  2.4002983406786721e-02  1.8768829857458907e-02  1.4343029145659606e-02  1.0716543440834416e-02  7.8357685665249987e-03  5.6192690711400805e-03  3.9734371993485409e-03  2.8057490580122241e-03  2.0350339621811272e-03  1.5987648825784412e-03  1.4577383639280874e-03  7.7751527840295223e-02  7.6841284410058094e-02  7.4174330828207499e-02  6.9933866812419976e-02  6.4402084678728100e-02  5.7929126677735421e-02  5.0896496655248070e-02  4.3680256716169992e-02  3.6618902640406514e-02  2.9989556684983081e-02  2.3994384535551982e-02  1.8757335491934316e-02  1.4329780792039839e-02  1.0702625068094889e-02  7.8220775120156714e-03  5.6064352039686561e-03  3.9617918942117169e-03  2.7953371315725855e-03  2.0256580414108748e-03  1.5900517982531492e-03  1.4492187042662486e-03  7.7776378103043262e-02  7.6868134677098701e-02  7.4205548732828822e-02  6.9969307472111483e-02  6.4439495323824800e-02  5.7965042687887339e-02  5.0927227528819424e-02  4.3702717754231991e-02  3.6631160081784339e-02  2.9991044887106279e-02  2.3985825997201976e-02  1.8740443345079148e-02  1.4306845457255326e-02  1.0676083650250554e-02  7.7941428268795462e-03  5.5788306356257819e-03  3.9356082794144770e-03  2.7710059122940146e-03  2.0030244266941973e-03  1.5685310392692404e-03  1.4280198202494098e-03  7.7740409229197935e-02  7.6850972723754310e-02  7.4220047744854953e-02  7.0014644652982072e-02  6.4507411604120046e-02  5.8044045285188937e-02  5.1005552768341636e-02  4.3770360142282548e-02  3.6681077089676044e-02  3.0019613890784603e-02  2.3992670231117362e-02  1.8727797153985270e-02  1.4278660144854852e-02  1.0637070060290826e-02  7.7489086400282080e-03  5.5312132373956779e-03  3.8882465924323689e-03  2.7251555766742378e-03  1.9586177637448197e-03  1.5245355861063007e-03  1.3832856075155129e-03  7.7294435856492261e-02  7.6645443248296433e-02  7.4180165159646247e-02  7.0086521730426621e-02  6.4648549209738310e-02  5.8219358786980473e-02  5.1186335554699113e-02  4.3934490986234101e-02  3.6813407980448562e-02  3.0111951027399483e-02  2.4043128965601863e-02  1.8739577144541140e-02  1.4258445757740401e-02  1.0593316612357708e-02  7.6902436279238512e-03  5.4650888723568186e-03  3.8198526588242325e-03  2.6564587028020123e-03  1.8872368511965835e-03  1.4419710231472513e-03  1.2717349480688553e-03  </DataArray> 
</PointData> 
</Piece>
</UnstructuredGrid>
</VTKFile>