<?xml version="1.0"?>
<VTKFile type="UnstructuredGrid"  version="0.1"  >
<UnstructuredGrid>
<Piece  NumberOfPoints="441" NumberOfCells="800">
<Points>
<DataArray  type="Float64"  NumberOfComponents="3"  format="ascii">-2 -2 0  -1.8 -2 0  -1.6 -2 0  -1.4 -2 0  -1.2 -2 0  -1 -2 0  -0.8 -2 0  -0.6000000000000001 -2 0  -0.3999999999999999 -2 0  -0.2 -2 0  0 -2 0  0.2000000000000002 -2 0  0.3999999999999999 -2 0  0.6000000000000001 -2 0  0.7999999999999998 -2 0  1 -2 0  1.2 -2 0  1.4 -2 0  1.6 -2 0  1.8 -2 0  2 -2 0  -2 -1.8 0  -1.8 -1.8 0  -1.6 -1.8 0  -1.4 -1.8 0  -1.2 -1.8 0  -1 -1.8 0  -0.8 -1.8 0  -0.6000000000000001 -1.8 0  -0.3999999999999999 -1.8 0  -0.2 -1.8 0  0 -1.8 0  0.2000000000000002 -1.8 0  0.3999999999999999 -1.8 0  0.6000000000000001 -1.8 0  0.7999999999999998 -1.8 0  1 -1.8 0  1.2 -1.8 0  1.4 -1.8 0  1.6 -1.8 0  1.8 -1.8 0  2 -1.8 0  -2 -1.6 0  -1.8 -1.6 0  -1.6 -1.6 0  -1.4 -1.6 0  -1.2 -1.6 0  -1 -1.6 0  -0.8 -1.6 0  -0.6000000000000001 -1.6 0  -0.3999999999999999 -1.6 0  -0.2 -1.6 0  0 -1.6 0  0.2000000000000002 -1.6 0  0.3999999999999999 -1.6 0  0.6000000000000001 -1.6 0  0.7999999999999998 -1.6 0  1 -1.6 0  1.2 -1.6 0  1.4 -1.6 0  1.6 -1.6 0  1.8 -1.6 0  2 -1.6 0  -2 -1.4 0  -1.8 -1.4 0  -1.6 -1.4 0  -1.4 -1.4 0  -1.2 -1.4 0  -1 -1.4 0  -0.8 -1.4 0  -0.6000000000000001 -1.4 0  -0.3999999999999999 -1.4 0  -0.2 -1.4 0  0 -1.4 0  0.2000000000000002 -1.4 0  0.3999999999999999 -1.4 0  0.6000000000000001 -1.4 0  0.7999999999999998 -1.4 0  1 -1.4 0  1.2 -1.4 0  1.4 -1.4 0  1.6 -1.4 0  1.8 -1.4 0  2 -1.4 0  -2 -1.2 0  -1.8 -1.2 0  -1.6 -1.2 0  -1.4 -1.2 0  -1.2 -1.2 0  -1 -1.2 0  -0.8 -1.2 0  -0.6000000000000001 -1.2 0  -0.3999999999999999 -1.2 0  -0.2 -1.2 0  0 -1.2 0  0.2000000000000002 -1.2 0  0.3999999999999999 -1.2 0  0.6000000000000001 -1.2 0  0.7999999999999998 -1.2 0  1 -1.2 0  1.2 -1.2 0  1.4 -1.2 0  1.6 -1.2 0  1.8 -1.2 0  2 -1.2 0  -2 -1 0  -1.8 -1 0  -1.6 -1 0  -1.4 -1 0  -1.2 -1 0  -1 -1 0  -0.8 -1 0  -0.6000000000000001 -1 0  -0.3999999999999999 -1 0  -0.2 -1 0  0 -1 0  0.2000000000000002 -1 0  0.3999999999999999 -1 0  0.6000000000000001 -1 0  0.7999999999999998 -1 0  1 -1 0  1.2 -1 0  1.4 -1 0  1.6 -1 0  1.8 -1 0  2 -1 0  -2 -0.8 0  -1.8 -0.8 0  -1.6 -0.8 0  -1.4 -0.8 0  -1.2 -0.8 0  -1 -0.8 0  -0.8 -0.8 0  -0.6000000000000001 -0.8 0  -0.3999999999999999 -0.8 0  -0.2 -0.8 0  0 -0.8 0  0.2000000000000002 -0.8 0  0.3999999999999999 -0.8 0  0.6000000000000001 -0.8 0  0.7999999999999998 -0.8 0  1 -0.8 0  1.2 -0.8 0  1.4 -0.8 0  1.6 -0.8 0  1.8 -0.8 0  2 -0.8 0  -2 -0.6000000000000001 0  -1.8 -0.6000000000000001 0  -1.6 -0.6000000000000001 0  -1.4 -0.6000000000000001 0  -1.2 -0.6000000000000001 0  -1 -0.6000000000000001 0  -0.8 -0.6000000000000001 0  -0.6000000000000001 -0.6000000000000001 0  -0.3999999999999999 -0.6000000000000001 0  -0.2 -0.6000000000000001 0  0 -0.6000000000000001 0  0.2000000000000002 -0.6000000000000001 0  0.3999999999999999 -0.6000000000000001 0  0.6000000000000001 -0.6000000000000001 0  0.7999999999999998 -0.6000000000000001 0  1 -0.6000000000000001 0  1.2 -0.6000000000000001 0  1.4 -0.6000000000000001 0  1.6 -0.6000000000000001 0  1.8 -0.6000000000000001 0  2 -0.6000000000000001 0  -2 -0.3999999999999999 0  -1.8 -0.3999999999999999 0  -1.6 -0.3999999999999999 0  -1.4 -0.3999999999999999 0  -1.2 -0.3999999999999999 0  -1 -0.3999999999999999 0  -0.8 -0.3999999999999999 0  -0.6000000000000001 -0.3999999999999999 0  -0.3999999999999999 -0.3999999999999999 0  -0.2 -0.3999999999999999 0  0 -0.3999999999999999 0  0.2000000000000002 -0.3999999999999999 0  0.3999999999999999 -0.3999999999999999 0  0.6000000000000001 -0.3999999999999999 0  0.7999999999999998 -0.3999999999999999 0  1 -0.3999999999999999 0  1.2 -0.3999999999999999 0  1.4 -0.3999999999999999 0  1.6 -0.3999999999999999 0  1.8 -0.3999999999999999 0  2 -0.3999999999999999 0  -2 -0.2 0  -1.8 -0.2 0  -1.6 -0.2 0  -1.4 -0.2 0  -1.2 -0.2 0  -1 -0.2 0  -0.8 -0.2 0  -0.6000000000000001 -0.2 0  -0.3999999999999999 -0.2 0  -0.2 -0.2 0  0 -0.2 0  0.2000000000000002 -0.2 0  0.3999999999999999 -0.2 0  0.6000000000000001 -0.2 0  0.7999999999999998 -0.2 0  1 -0.2 0  1.2 -0.2 0  1.4 -0.2 0  1.6 -0.2 0  1.8 -0.2 0  2 -0.2 0  -2 0 0  -1.8 0 0  -1.6 0 0  -1.4 0 0  -1.2 0 0  -1 0 0  -0.8 0 0  -0.6000000000000001 0 0  -0.3999999999999999 0 0  -0.2 0 0  0 0 0  0.2000000000000002 0 0  0.3999999999999999 0 0  0.6000000000000001 0 0  0.7999999999999998 0 0  1 0 0  1.2 0 0  1.4 0 0  1.6 0 0  1.8 0 0  2 0 0  -2 0.2000000000000002 0  -1.8 0.2000000000000002 0  -1.6 0.2000000000000002 0  -1.4 0.2000000000000002 0  -1.2 0.2000000000000002 0  -1 0.2000000000000002 0  -0.8 0.2000000000000002 0  -0.6000000000000001 0.2000000000000002 0  -0.3999999999999999 0.2000000000000002 0  -0.2 0.2000000000000002 0  0 0.2000000000000002 0  0.2000000000000002 0.2000000000000002 0  0.3999999999999999 0.2000000000000002 0  0.6000000000000001 0.2000000000000002 0  0.7999999999999998 0.2000000000000002 0  1 0.2000000000000002 0  1.2 0.2000000000000002 0  1.4 0.2000000000000002 0  1.6 0.2000000000000002 0  1.8 0.2000000000000002 0  2 0.2000000000000002 0  -2 0.3999999999999999 0  -1.8 0.3999999999999999 0  -1.6 0.3999999999999999 0  -1.4 0.3999999999999999 0  -1.2 0.3999999999999999 0  -1 0.3999999999999999 0  -0.8 0.3999999999999999 0  -0.6000000000000001 0.3999999999999999 0  -0.3999999999999999 0.3999999999999999 0  -0.2 0.3999999999999999 0  0 0.3999999999999999 0  0.2000000000000002 0.3999999999999999 0  0.3999999999999999 0.3999999999999999 0  0.6000000000000001 0.3999999999999999 0  0.7999999999999998 0.3999999999999999 0  1 0.3999999999999999 0  1.2 0.3999999999999999 0  1.4 0.3999999999999999 0  1.6 0.3999999999999999 0  1.8 0.3999999999999999 0  2 0.3999999999999999 0  -2 0.6000000000000001 0  -1.8 0.6000000000000001 0  -1.6 0.6000000000000001 0  -1.4 0.6000000000000001 0  -1.2 0.6000000000000001 0  -1 0.6000000000000001 0  -0.8 0.6000000000000001 0  -0.6000000000000001 0.6000000000000001 0  -0.3999999999999999 0.6000000000000001 0  -0.2 0.6000000000000001 0  0 0.6000000000000001 0  0.2000000000000002 0.6000000000000001 0  0.3999999999999999 0.6000000000000001 0  0.6000000000000001 0.6000000000000001 0  0.7999999999999998 0.6000000000000001 0  1 0.6000000000000001 0  1.2 0.6000000000000001 0  1.4 0.6000000000000001 0  1.6 0.6000000000000001 0  1.8 0.6000000000000001 0  2 0.6000000000000001 0  -2 0.7999999999999998 0  -1.8 0.7999999999999998 0  -1.6 0.7999999999999998 0  -1.4 0.7999999999999998 0  -1.2 0.7999999999999998 0  -1 0.7999999999999998 0  -0.8 0.7999999999999998 0  -0.6000000000000001 0.7999999999999998 0  -0.3999999999999999 0.7999999999999998 0  -0.2 0.7999999999999998 0  0 0.7999999999999998 0  0.2000000000000002 0.7999999999999998 0  0.3999999999999999 0.7999999999999998 0  0.6000000000000001 0.7999999999999998 0  0.7999999999999998 0.7999999999999998 0  1 0.7999999999999998 0  1.2 0.7999999999999998 0  1.4 0.7999999999999998 0  1.6 0.7999999999999998 0  1.8 0.7999999999999998 0  2 0.7999999999999998 0  -2 1 0  -1.8 1 0  -1.6 1 0  -1.4 1 0  -1.2 1 0  -1 1 0  -0.8 1 0  -0.6000000000000001 1 0  -0.3999999999999999 1 0  -0.2 1 0  0 1 0  0.2000000000000002 1 0  0.3999999999999999 1 0  0.6000000000000001 1 0  0.7999999999999998 1 0  1 1 0  1.2 1 0  1.4 1 0  1.6 1 0  1.8 1 0  2 1 0  -2 1.2 0  -1.8 1.2 0  -1.6 1.2 0  -1.4 1.2 0  -1.2 1.2 0  -1 1.2 0  -0.8 1.2 0  -0.6000000000000001 1.2 0  -0.3999999999999999 1.2 0  -0.2 1.2 0  0 1.2 0  0.2000000000000002 1.2 0  0.3999999999999999 1.2 0  0.6000000000000001 1.2 0  0.7999999999999998 1.2 0  1 1.2 0  1.2 1.2 0  1.4 1.2 0  1.6 1.2 0  1.8 1.2 0  2 1.2 0  -2 1.4 0  -1.8 1.4 0  -1.6 1.4 0  -1.4 1.4 0  -1.2 1.4 0  -1 1.4 0  -0.8 1.4 0  -0.6000000000000001 1.4 0  -0.3999999999999999 1.4 0  -0.2 1.4 0  0 1.4 0  0.2000000000000002 1.4 0  0.3999999999999999 1.4 0  0.6000000000000001 1.4 0  0.7999999999999998 1.4 0  1 1.4 0  1.2 1.4 0  1.4 1.4 0  1.6 1.4 0  1.8 1.4 0  2 1.4 0  -2 1.6 0  -1.8 1.6 0  -1.6 1.6 0  -1.4 1.6 0  -1.2 1.6 0  -1 1.6 0  -0.8 1.6 0  -0.6000000000000001 1.6 0  -0.3999999999999999 1.6 0  -0.2 1.6 0  0 1.6 0  0.2000000000000002 1.6 0  0.3999999999999999 1.6 0  0.6000000000000001 1.6 0  0.7999999999999998 1.6 0  1 1.6 0  1.2 1.6 0  1.4 1.6 0  1.6 1.6 0  1.8 1.6 0  2 1.6 0  -2 1.8 0  -1.8 1.8 0  -1.6 1.8 0  -1.4 1.8 0  -1.2 1.8 0  -1 1.8 0  -0.8 1.8 0  -0.6000000000000001 1.8 0  -0.3999999999999999 1.8 0  -0.2 1.8 0  0 1.8 0  0.2000000000000002 1.8 0  0.3999999999999999 1.8 0  0.6000000000000001 1.8 0  0.7999999999999998 1.8 0  1 1.8 0  1.2 1.8 0  1.4 1.8 0  1.6 1.8 0  1.8 1.8 0  2 1.8 0  -2 2 0  -1.8 2 0  -1.6 2 0  -1.4 2 0  -1.2 2 0  -1 2 0  -0.8 2 0  -0.6000000000000001 2 0  -0.3999999999999999 2 0  -0.2 2 0  0 2 0  0.2000000000000002 2 0  0.3999999999999999 2 0  0.6000000000000001 2 0  0.7999999999999998 2 0  1 2 0  1.2 2 0  1.4 2 0  1.6 2 0  1.8 2 0  2 2 0  </DataArray>
</Points>
<Cells>
[...]
<PointData  Scalars="f_8"> 
<DataArray  type="Float64"  Name="f_8"  format="ascii">3.3944011037754612e-01  3.3903134942626184e-01  3.3801361088748472e-01  3.3640349846324025e-01  3.3423568702190304e-01  3.3156063781302275e-01  3.2844251849363360e-01  3.2495712824258022e-01  3.2118973659541566e-01  3.1723280840776413e-01  3.1318362546468326e-01  3.0914183836835085e-01  3.0520699659010669e-01  3.0147611367426885e-01  2.9804133107088165e-01  2.9498775016456857e-01  2.9239151035264760e-01  2.9031820531918273e-01  2.8882175622067996e-01  2.8794391015013993e-01  2.8771462397867070e-01  3.3925225979461804e-01  3.3892566154966719e-01  3.3796116013734795e-01  3.3638694497296379e-01  3.3424427774741566e-01  3.3158735625287256e-01  3.2848245696797451e-01  3.2500655834221015e-01  3.2124557904308371e-01  3.1729233028338116e-01  3.1324426346382500e-01  3.0920108523467804e-01  3.0526230689162187e-01  3.0152479096505336e-01  2.9808035311799241e-01  2.9501347054773863e-01  2.9239913727861061e-01  2.9030088945383115e-01  2.8876899555182961e-01  2.8783875942869186e-01  2.8752880384188262e-01  3.3920504927039996e-01  3.3888458027694784e-01  3.3793145075749526e-01  3.3637001198917721e-01  3.3423964081777563e-01  3.3159363503707023e-01  3.2849785623222011e-01  3.2502910010050540e-01  3.2127321004329196e-01  3.1732297031712009e-01  3.1327582703286333e-01  3.0923149228303504e-01  3.0528949043755621e-01  3.0154670711069931e-01  2.9809500102414233e-01  2.9501893744085034e-01  2.9239369962722012e-01  2.9028323293228803e-01  2.8873867641923906e-01  2.8779714306269882e-01  2.8748092800015446e-01  3.3918811948985511e-01  3.3886881997347040e-01  3.3791883411291918e-01  3.3636180344724131e-01  3.3423641583791130e-01  3.3159539715097291e-01  3.2850416879332733e-01  3.2503920391780000e-01  3.2128612064339263e-01  3.1733755718481305e-01  3.1329087975685377e-01  3.0924577882326754e-01  3.0530181243297938e-01  3.0155595697141135e-01  2.9810022569846700e-01  2.9501941404986631e-01  2.9238902796943439e-01  2.9027344761643331e-01  2.8872437363525111e-01  2.8777959644437018e-01  2.8746211960493662e-01  3.3918192787170293e-01  3.3886300565534805e-01  3.3791411812866801e-01  3.3635874295827040e-01  3.3423535108259500e-01  3.3159643831299096e-01  3.2850720981701026e-01  3.2504395239552236e-01  3.2129213628270403e-01  3.1734429428707894e-01  3.1329773121241566e-01  3.0925212042644251e-01  3.0530704702080241e-01  3.0155955813174101e-01  2.9810178063008147e-01  2.9501866454840198e-01  2.9238590733033859e-01  2.9026810931378594e-01  2.8871720485053431e-01  2.8777120617247437e-01  2.8745328861775976e-01  3.3918014806259805e-01  3.3886136498625680e-01  3.3791288897070659e-01  3.3635814595515079e-01  3.3423552994707484e-01  3.3159744602578201e-01  3.2850900582343662e-01  3.2504640914460975e-01  3.2129505304032441e-01  3.1734741619574502e-01  3.1330077179401167e-01  3.0925478596885203e-01  3.0530906147020320e-01  3.0156068719066753e-01  2.9810185372529963e-01  2.9501759318976761e-01  2.9238369816425364e-01  2.9026486995667000e-01  2.8871314051380836e-01  2.8776660541039456e-01  2.8744849760985414e-01  3.3918020878904370e-01  3.3886147447116161e-01  3.3791314235785053e-01  3.3635861926747790e-01  3.3423626968675091e-01  3.3159846248104796e-01  3.2851027058264248e-01  3.2504785677096587e-01  3.2129658646584075e-01  3.1734891514110669e-01  3.1330210337927794e-01  3.0925581661102697e-01  3.0530966913800855e-01  3.0156077308509188e-01  2.9810135246915376e-01  2.9501648064471847e-01  2.9238199606551307e-01  2.9026264669070279e-01  2.8871050759838729e-01  2.8776370960413405e-01  2.8744550909601219e-01  3.3918098010585046e-01  3.3886225814888893e-01  3.3791396134405965e-01  3.3635948920187725e-01  3.3423719483365261e-01  3.3159943303798156e-01  3.2851126166042804e-01  3.2504882913981703e-01  3.2129748897684363e-01  3.1734968857846974e-01  3.1330268538200029e-01  3.0925614722305078e-01  3.0530969650091577e-01  3.0156045877425780e-01  2.9810067599154300e-01  2.9501544266458840e-01  2.9238062000509318e-01  2.9026097846876370e-01  2.8870861342108789e-01  2.8776167190533652e-01  2.8744342092534386e-01  3.3918196859426819e-01  3.3886324453635586e-01  3.3791493998583128e-01  3.3636045183782148e-01  3.3423812917176449e-01  3.3160032188572042e-01  3.2851208273781929e-01  3.2504955563038018e-01  3.2129809079224148e-01  3.1735013423864800e-01  3.1330294435057032e-01  3.0925619249171432e-01  3.0530950718910427e-01  3.0156002250192654e-01  2.9809999079445842e-01  2.9501451825203906e-01  2.9237947820857396e-01  2.9025965279463728e-01  2.8870714769686101e-01  2.8776011809243018e-01  2.8744183625333403e-01  3.3918298737196773e-01  3.3886425572486173e-01  3.3791592743724508e-01  3.3636139867556697e-01  3.3423901745340517e-01  3.3160113249501039e-01  3.2851279556268570e-01  3.2505015005015309e-01  3.2129854646146688e-01  3.1735043212004777e-01  3.1330306791951334e-01  3.0925612901162813e-01  3.0530924894350558e-01  3.0155956786531546e-01  2.9809934503155500e-01  2.9501369395234239e-01  2.9237849528982873e-01  2.9025853804259938e-01  2.8870593384711662e-01  2.8775884249965306e-01  2.8744053923050078e-01  3.3918400345342842e-01  3.3886526218372526e-01  3.3791690465879937e-01  3.3636232699359225e-01  3.3423987719980730e-01  3.3160190416747154e-01  3.2851346013730010e-01  3.2505068944759352e-01  3.2129894415514909e-01  3.1735067385515747e-01  3.1330314249465951e-01  3.0925602906202249e-01  3.0530897165725540e-01  3.0155911556345066e-01  2.9809872554803130e-01  2.9501292076213109e-01  2.9237758735043284e-01  2.9025751933553356e-01  2.8870483262925528e-01  2.8775769029780252e-01  2.8743936963390793e-01  3.3918505459992426e-01  3.3886630305966203e-01  3.3791791492881107e-01  3.3636328628980822e-01  3.3424076519073936e-01  3.3160270074738174e-01  3.2851414576139121e-01  3.2505124561967264e-01  3.2129935405429699e-01  3.1735092306851204e-01  3.1330321980668163e-01  3.0925592723824774e-01  3.0530868815380363e-01  3.0155865309321739e-01  2.9809809244070323e-01  2.9501213106757018e-01  2.9237666065262330e-01  2.9025648026574724e-01  2.8870371009052515e-01  2.8775651643609595e-01  2.8743817861236726e-01  3.3918618971990494e-01  3.3886742871509706e-01  3.3791901265638769e-01  3.3636433693082002e-01  3.3424174861888512e-01  3.3160359583599180e-01  3.2851493064069970e-01  3.2505189824050207e-01  3.2129985303853631e-01  3.1735124879274201e-01  3.1330335563643547e-01  3.0925586080919504e-01  3.0530841258436497e-01  3.0155816801173058e-01  2.9809740471949486e-01  2.9501125517559956e-01  2.9237561856647198e-01  2.9025530091356844e-01  2.8870242834235338e-01  2.8775517169321346e-01  2.8743681308438612e-01  3.3918740678492465e-01  3.3886864086956353e-01  3.3792020991609772e-01  3.3636550665510340e-01  3.3424287423012533e-01  3.3160465611437229e-01  3.2851589971273587e-01  3.2505274630083508e-01  3.2130054776518630e-01  3.1735175734427057e-01  3.1330364706072866e-01  3.0925590865133751e-01  3.0530819745730242e-01  3.0155767988901938e-01  2.9809664472457259e-01  2.9501023667618065e-01  2.9237436743458933e-01  2.9025385487900673e-01  2.8870083544570335e-01  2.8775348792840721e-01  2.8743509940104728e-01  3.3918856222905530e-01  3.3886980574536357e-01  3.3792140019087913e-01  3.3636673065963191e-01  3.3424412886046195e-01  3.3160592447203163e-01  3.2851715043963442e-01  3.2505393466692217e-01  3.2130161838772042e-01  3.1735264827153947e-01  3.1330429484382616e-01  3.0925625395457773e-01  3.0530819071829440e-01  3.0155728653098163e-01  2.9809584944528694e-01  2.9500904639106262e-01  2.9237281253804043e-01  2.9025198861085116e-01  2.8869873130802853e-01  2.8775123528663299e-01  2.8743279760594137e-01  3.3918920600562824e-01  3.3887049720951351e-01  3.3792222414897738e-01  3.3636775171815475e-01  3.3424538160743739e-01  3.3160740747276984e-01  3.2851882444452524e-01  3.2505572491155749e-01  3.2130342050043625e-01  3.1735433707483424e-01  3.1330573520874688e-01  3.0925731280532132e-01  3.0530874926024770e-01  3.0155725177254999e-01  2.9809516409712705e-01  2.9500769626248818e-01  2.9237083062791525e-01  2.9024945523867135e-01  2.8869576988678453e-01  2.8774800373606657e-01  2.8742947595188734e-01  3.3918823501203044e-01  3.3886967064534879e-01  3.3792179959284996e-01  3.3636793227701600e-01  3.3424629224040270e-01  3.3160908270943112e-01  3.2852120685451069e-01  3.2505867259581078e-01  3.2130672155515233e-01  3.1735772905869114e-01  3.1330892787257214e-01  3.0926001257462482e-01  3.0531068411985351e-01  3.0155819525540478e-01  2.9809495701729488e-01  2.9500626466594726e-01  2.9236819820148124e-01  2.9024574820111704e-01  2.8869121234818118e-01  2.8774290192278645e-01  2.8742419093970539e-01  3.3918306973706747e-01  3.3886490449501244e-01  3.3791813011948557e-01  3.3636588767439407e-01  3.3424618316302784e-01  3.3161099230900781e-01  3.2852500621525649e-01  3.2506405119269294e-01  3.2131322571272330e-01  3.1736480418626684e-01  3.1331596220162677e-01  3.0926638132814466e-01  3.0531579367559064e-01  3.0156152705220718e-01  2.9809611073540504e-01  2.9500499953245046e-01  2.9236446999038834e-01  2.9023973743509490e-01  2.8868333628829518e-01  2.8773379954447026e-01  2.8741466797963011e-01  3.3916733099017571e-01  3.3885039728051997e-01  3.3790677076302522e-01  3.3635888389263030e-01  3.3424406675830876e-01  3.3161373712712355e-01  3.2853215708230560e-01  3.2507483809457210e-01  3.2132665809526190e-01  3.1737974803471702e-01  3.1333120482811616e-01  3.0928068901077960e-01  3.0532796701857290e-01  3.0157045881936406e-01  2.9810085111442386e-01  2.9500483411276329e-01  2.9235901547263704e-01  2.9022905753322381e-01  2.8866807169378067e-01  2.8771528327990564e-01  2.8739494467469695e-01  3.3912144673288336e-01  3.3881077050878394e-01  3.3787840654834850e-01  3.3634310436069559e-01  3.3424038050966914e-01  3.3162078195140099e-01  3.2854816444807244e-01  3.2509785557807852e-01  3.2135465253944973e-01  3.1741065208892566e-01  3.1336293798207049e-01  3.0931116815445858e-01  3.0535511409377603e-01  3.0159221104660650e-01  2.9811518166823253e-01  2.9500979902594054e-01  2.9235285940137234e-01  2.9021044398243001e-01  2.8863656614678945e-01  2.8767233616137022e-01  2.8734584302964367e-01  3.3893592770955450e-01  3.3870613041912129e-01  3.3782628340330328e-01  3.3632649157934569e-01  3.3424872662317218e-01  3.3164719547251892e-01  3.2858781695998285e-01  3.2514706934318127e-01  3.2141037985348386e-01  3.1747017766889685e-01  3.1342370488800525e-01  3.0937066533126978e-01  3.0541078208407940e-01  3.0164132786317321e-01  2.9815468500582998e-01  2.9503598201169223e-01  2.9236083864209100e-01  2.9019322795552654e-01  2.8858342524317215e-01  2.8756594997796081e-01  2.8715729868684070e-01  </DataArray> 
</PointData> 
</Piece>
</UnstructuredGrid>
</VTKFile>