<?xml version="1.0"?>
<VTKFile type="UnstructuredGrid"  version="0.1"  >
<UnstructuredGrid>
<Piece  NumberOfPoints="441" NumberOfCells="800">
<Points>
<DataArray  type="Float64"  NumberOfComponents="3"  format="ascii">-2 -2 0  -1.8 -2 0  -1.6 -2 0  -1.4 -2 0  -1.2 -2 0  -1 -2 0  -0.8 -2 0  -0.6000000000000001 -2 0  -0.3999999999999999 -2 0  -0.2 -2 0  0 -2 0  0.2000000000000002 -2 0  0.3999999999999999 -2 0  0.6000000000000001 -2 0  0.7999999999999998 -2 0  1 -2 0  1.2 -2 0  1.4 -2 0  1.6 -2 0  1.8 -2 0  2 -2 0  -2 -1.8 0  -1.8 -1.8 0  -1.6 -1.8 0  -1.4 -1.8 0  -1.2 -1.8 0  -1 -1.8 0  -0.8 -1.8 0  -0.6000000000000001 -1.8 0  -0.3999999999999999 -1.8 0  -0.2 -1.8 0  0 -1.8 0  0.2000000000000002 -1.8 0  0.3999999999999999 -1.8 0  0.6000000000000001 -1.8 0  0.7999999999999998 -1.8 0  1 -1.8 0  1.2 -1.8 0  1.4 -1.8 0  1.6 -1.8 0  1.8 -1.8 0  2 -1.8 0  -2 -1.6 0  -1.8 -1.6 0  -1.6 -1.6 0  -1.4 -1.6 0  -1.2 -1.6 0  -1 -1.6 0  -0.8 -1.6 0  -0.6000000000000001 -1.6 0  -0.3999999999999999 -1.6 0  -0.2 -1.6 0  0 -1.6 0  0.2000000000000002 -1.6 0  0.3999999999999999 -1.6 0  0.6000000000000001 -1.6 0  0.7999999999999998 -1.6 0  1 -1.6 0  1.2 -1.6 0  1.4 -1.6 0  1.6 -1.6 0  1.8 -1.6 0  2 -1.6 0  -2 -1.4 0  -1.8 -1.4 0  -1.6 -1.4 0  -1.4 -1.4 0  -1.2 -1.4 0  -1 -1.4 0  -0.8 -1.4 0  -0.6000000000000001 -1.4 0  -0.3999999999999999 -1.4 0  -0.2 -1.4 0  0 -1.4 0  0.2000000000000002 -1.4 0  0.3999999999999999 -1.4 0  0.6000000000000001 -1.4 0  0.7999999999999998 -1.4 0  1 -1.4 0  1.2 -1.4 0  1.4 -1.4 0  1.6 -1.4 0  1.8 -1.4 0  2 -1.4 0  -2 -1.2 0  -1.8 -1.2 0  -1.6 -1.2 0  -1.4 -1.2 0  -1.2 -1.2 0  -1 -1.2 0  -0.8 -1.2 0  -0.6000000000000001 -1.2 0  -0.3999999999999999 -1.2 0  -0.2 -1.2 0  0 -1.2 0  0.2000000000000002 -1.2 0  0.3999999999999999 -1.2 0  0.6000000000000001 -1.2 0  0.7999999999999998 -1.2 0  1 -1.2 0  1.2 -1.2 0  1.4 -1.2 0  1.6 -1.2 0  1.8 -1.2 0  2 -1.2 0  -2 -1 0  -1.8 -1 0  -1.6 -1 0  -1.4 -1 0  -1.2 -1 0  -1 -1 0  -0.8 -1 0  -0.6000000000000001 -1 0  -0.3999999999999999 -1 0  -0.2 -1 0  0 -1 0  0.2000000000000002 -1 0  0.3999999999999999 -1 0  0.6000000000000001 -1 0  0.7999999999999998 -1 0  1 -1 0  1.2 -1 0  1.4 -1 0  1.6 -1 0  1.8 -1 0  2 -1 0  -2 -0.8 0  -1.8 -0.8 0  -1.6 -0.8 0  -1.4 -0.8 0  -1.2 -0.8 0  -1 -0.8 0  -0.8 -0.8 0  -0.6000000000000001 -0.8 0  -0.3999999999999999 -0.8 0  -0.2 -0.8 0  0 -0.8 0  0.2000000000000002 -0.8 0  0.3999999999999999 -0.8 0  0.6000000000000001 -0.8 0  0.7999999999999998 -0.8 0  1 -0.8 0  1.2 -0.8 0  1.4 -0.8 0  1.6 -0.8 0  1.8 -0.8 0  2 -0.8 0  -2 -0.6000000000000001 0  -1.8 -0.6000000000000001 0  -1.6 -0.6000000000000001 0  -1.4 -0.6000000000000001 0  -1.2 -0.6000000000000001 0  -1 -0.6000000000000001 0  -0.8 -0.6000000000000001 0  -0.6000000000000001 -0.6000000000000001 0  -0.3999999999999999 -0.6000000000000001 0  -0.2 -0.6000000000000001 0  0 -0.6000000000000001 0  0.2000000000000002 -0.6000000000000001 0  0.3999999999999999 -0.6000000000000001 0  0.6000000000000001 -0.6000000000000001 0  0.7999999999999998 -0.6000000000000001 0  1 -0.6000000000000001 0  1.2 -0.6000000000000001 0  1.4 -0.6000000000000001 0  1.6 -0.6000000000000001 0  1.8 -0.6000000000000001 0  2 -0.6000000000000001 0  -2 -0.3999999999999999 0  -1.8 -0.3999999999999999 0  -1.6 -0.3999999999999999 0  -1.4 -0.3999999999999999 0  -1.2 -0.3999999999999999 0  -1 -0.3999999999999999 0  -0.8 -0.3999999999999999 0  -0.6000000000000001 -0.3999999999999999 0  -0.3999999999999999 -0.3999999999999999 0  -0.2 -0.3999999999999999 0  0 -0.3999999999999999 0  0.2000000000000002 -0.3999999999999999 0  0.3999999999999999 -0.3999999999999999 0  0.6000000000000001 -0.3999999999999999 0  0.7999999999999998 -0.3999999999999999 0  1 -0.3999999999999999 0  1.2 -0.3999999999999999 0  1.4 -0.3999999999999999 0  1.6 -0.3999999999999999 0  1.8 -0.3999999999999999 0  2 -0.3999999999999999 0  -2 -0.2 0  -1.8 -0.2 0  -1.6 -0.2 0  -1.4 -0.2 0  -1.2 -0.2 0  -1 -0.2 0  -0.8 -0.2 0  -0.6000000000000001 -0.2 0  -0.3999999999999999 -0.2 0  -0.2 -0.2 0  0 -0.2 0  0.2000000000000002 -0.2 0  0.3999999999999999 -0.2 0  0.6000000000000001 -0.2 0  0.7999999999999998 -0.2 0  1 -0.2 0  1.2 -0.2 0  1.4 -0.2 0  1.6 -0.2 0  1.8 -0.2 0  2 -0.2 0  -2 0 0  -1.8 0 0  -1.6 0 0  -1.4 0 0  -1.2 0 0  -1 0 0  -0.8 0 0  -0.6000000000000001 0 0  -0.3999999999999999 0 0  -0.2 0 0  0 0 0  0.2000000000000002 0 0  0.3999999999999999 0 0  0.6000000000000001 0 0  0.7999999999999998 0 0  1 0 0  1.2 0 0  1.4 0 0  1.6 0 0  1.8 0 0  2 0 0  -2 0.2000000000000002 0  -1.8 0.2000000000000002 0  -1.6 0.2000000000000002 0  -1.4 0.2000000000000002 0  -1.2 0.2000000000000002 0  -1 0.2000000000000002 0  -0.8 0.2000000000000002 0  -0.6000000000000001 0.2000000000000002 0  -0.3999999999999999 0.2000000000000002 0  -0.2 0.2000000000000002 0  0 0.2000000000000002 0  0.2000000000000002 0.2000000000000002 0  0.3999999999999999 0.2000000000000002 0  0.6000000000000001 0.2000000000000002 0  0.7999999999999998 0.2000000000000002 0  1 0.2000000000000002 0  1.2 0.2000000000000002 0  1.4 0.2000000000000002 0  1.6 0.2000000000000002 0  1.8 0.2000000000000002 0  2 0.2000000000000002 0  -2 0.3999999999999999 0  -1.8 0.3999999999999999 0  -1.6 0.3999999999999999 0  -1.4 0.3999999999999999 0  -1.2 0.3999999999999999 0  -1 0.3999999999999999 0  -0.8 0.3999999999999999 0  -0.6000000000000001 0.3999999999999999 0  -0.3999999999999999 0.3999999999999999 0  -0.2 0.3999999999999999 0  0 0.3999999999999999 0  0.2000000000000002 0.3999999999999999 0  0.3999999999999999 0.3999999999999999 0  0.6000000000000001 0.3999999999999999 0  0.7999999999999998 0.3999999999999999 0  1 0.3999999999999999 0  1.2 0.3999999999999999 0  1.4 0.3999999999999999 0  1.6 0.3999999999999999 0  1.8 0.3999999999999999 0  2 0.3999999999999999 0  -2 0.6000000000000001 0  -1.8 0.6000000000000001 0  -1.6 0.6000000000000001 0  -1.4 0.6000000000000001 0  -1.2 0.6000000000000001 0  -1 0.6000000000000001 0  -0.8 0.6000000000000001 0  -0.6000000000000001 0.6000000000000001 0  -0.3999999999999999 0.6000000000000001 0  -0.2 0.6000000000000001 0  0 0.6000000000000001 0  0.2000000000000002 0.6000000000000001 0  0.3999999999999999 0.6000000000000001 0  0.6000000000000001 0.6000000000000001 0  0.7999999999999998 0.6000000000000001 0  1 0.6000000000000001 0  1.2 0.6000000000000001 0  1.4 0.6000000000000001 0  1.6 0.6000000000000001 0  1.8 0.6000000000000001 0  2 0.6000000000000001 0  -2 0.7999999999999998 0  -1.8 0.7999999999999998 0  -1.6 0.7999999999999998 0  -1.4 0.7999999999999998 0  -1.2 0.7999999999999998 0  -1 0.7999999999999998 0  -0.8 0.7999999999999998 0  -0.6000000000000001 0.7999999999999998 0  -0.3999999999999999 0.7999999999999998 0  -0.2 0.7999999999999998 0  0 0.7999999999999998 0  0.2000000000000002 0.7999999999999998 0  0.3999999999999999 0.7999999999999998 0  0.6000000000000001 0.7999999999999998 0  0.7999999999999998 0.7999999999999998 0  1 0.7999999999999998 0  1.2 0.7999999999999998 0  1.4 0.7999999999999998 0  1.6 0.7999999999999998 0  1.8 0.7999999999999998 0  2 0.7999999999999998 0  -2 1 0  -1.8 1 0  -1.6 1 0  -1.4 1 0  -1.2 1 0  -1 1 0  -0.8 1 0  -0.6000000000000001 1 0  -0.3999999999999999 1 0  -0.2 1 0  0 1 0  0.2000000000000002 1 0  0.3999999999999999 1 0  0.6000000000000001 1 0  0.7999999999999998 1 0  1 1 0  1.2 1 0  1.4 1 0  1.6 1 0  1.8 1 0  2 1 0  -2 1.2 0  -1.8 1.2 0  -1.6 1.2 0  -1.4 1.2 0  -1.2 1.2 0  -1 1.2 0  -0.8 1.2 0  -0.6000000000000001 1.2 0  -0.3999999999999999 1.2 0  -0.2 1.2 0  0 1.2 0  0.2000000000000002 1.2 0  0.3999999999999999 1.2 0  0.6000000000000001 1.2 0  0.7999999999999998 1.2 0  1 1.2 0  1.2 1.2 0  1.4 1.2 0  1.6 1.2 0  1.8 1.2 0  2 1.2 0  -2 1.4 0  -1.8 1.4 0  -1.6 1.4 0  -1.4 1.4 0  -1.2 1.4 0  -1 1.4 0  -0.8 1.4 0  -0.6000000000000001 1.4 0  -0.3999999999999999 1.4 0  -0.2 1.4 0  0 1.4 0  0.2000000000000002 1.4 0  0.3999999999999999 1.4 0  0.6000000000000001 1.4 0  0.7999999999999998 1.4 0  1 1.4 0  1.2 1.4 0  1.4 1.4 0  1.6 1.4 0  1.8 1.4 0  2 1.4 0  -2 1.6 0  -1.8 1.6 0  -1.6 1.6 0  -1.4 1.6 0  -1.2 1.6 0  -1 1.6 0  -0.8 1.6 0  -0.6000000000000001 1.6 0  -0.3999999999999999 1.6 0  -0.2 1.6 0  0 1.6 0  0.2000000000000002 1.6 0  0.3999999999999999 1.6 0  0.6000000000000001 1.6 0  0.7999999999999998 1.6 0  1 1.6 0  1.2 1.6 0  1.4 1.6 0  1.6 1.6 0  1.8 1.6 0  2 1.6 0  -2 1.8 0  -1.8 1.8 0  -1.6 1.8 0  -1.4 1.8 0  -1.2 1.8 0  -1 1.8 0  -0.8 1.8 0  -0.6000000000000001 1.8 0  -0.3999999999999999 1.8 0  -0.2 1.8 0  0 1.8 0  0.2000000000000002 1.8 0  0.3999999999999999 1.8 0  0.6000000000000001 1.8 0  0.7999999999999998 1.8 0  1 1.8 0  1.2 1.8 0  1.4 1.8 0  1.6 1.8 0  1.8 1.8 0  2 1.8 0  -2 2 0  -1.8 2 0  -1.6 2 0  -1.4 2 0  -1.2 2 0  -1 2 0  -0.8 2 0  -0.6000000000000001 2 0  -0.3999999999999999 2 0  -0.2 2 0  0 2 0  0.2000000000000002 2 0  0.3999999999999999 2 0  0.6000000000000001 2 0  0.7999999999999998 2 0  1 2 0  1.2 2 0  1.4 2 0  1.6 2 0  1.8 2 0  2 2 0  </DataArray>
</Points>
<Cells>
[...]
<PointData  Scalars="f_8"> 
<DataArray  type="Float64"  Name="f_8"  format="ascii">1.4468754174920057e-01  1.3734165980812890e-01  1.2062983309518290e-01  9.8178163671079469e-02  7.4197193228477593e-02  5.2201033692540227e-02  3.4289233568313010e-02  2.1097342610071939e-02  1.2201495132370887e-02  6.6580545184126627e-03  3.4416746499822547e-03  1.6924920152461902e-03  7.9538538967730932e-04  3.5892750960227887e-04  1.5632795957825190e-04  6.6078631713759373e-05  2.7277097464815630e-05  1.1096489131801072e-05  4.5558027142911091e-06  2.0868941415912994e-06  1.5002612191048579e-06  1.4278872214659211e-01  1.3706756691749328e-01  1.2138583381882548e-01  9.9317483208795493e-02  7.5192039238242331e-02  5.2762230319681060e-02  3.4374063173869963e-02  2.0827573659611950e-02  1.1754847365811262e-02  6.1867972153820637e-03  3.0378379081970235e-03  1.3903358189506544e-03  5.9115438900753201e-04  2.3167602741789784e-04  8.2211049457688192e-05  2.5287185766297216e-05  5.8588236737268605e-06  2.3823327482217370e-07  -9.0998421704233185e-07  -9.2579774722359518e-07  -8.8302084572288129e-07  1.4284532319823995e-01  1.3722348882544758e-01  1.2167808047175567e-01  9.9645198849289657e-02  7.5425273771856607e-02  5.2824327230761060e-02  3.4268385577514465e-02  2.0614895984264379e-02  1.1511223303122079e-02  5.9703817832334524e-03  2.8765318658434107e-03  1.2864183771871744e-03  5.3284504638293558e-04  2.0354481036601981e-04  7.1164740494888563e-05  2.2488265762801369e-05  6.3024183782237501e-06  1.5397258005345560e-06  3.5282158593960844e-07  1.2921939509073450e-07  1.1894131755673493e-07  1.4292618924086112e-01  1.3730921065274226e-01  1.2176455483725795e-01  9.9712753075608548e-02  7.5452062329754946e-02  5.2802726780087947e-02  3.4210115530743400e-02  2.0543169455675209e-02  1.1448058391159727e-02  5.9280081114714911e-03  2.8562289062991787e-03  1.2825237291769348e-03  5.3781718790164325e-04  2.1132691989462314e-04  7.8283367141811292e-05  2.7655451934861555e-05  9.5142413215995415e-06  3.2979205665570852e-06  1.2116803010080491e-06  5.2430490124710269e-07  3.6728314132774516e-07  1.4293815257830755e-01  1.3732047316428711e-01  1.2177316786724858e-01  9.9716026137451411e-02  7.5448362332986463e-02  5.2793418534026339e-02  3.4199420843602148e-02  2.0535838818438693e-02  1.1446780542298887e-02  5.9324353158568535e-03  2.8638941515281373e-03  1.2905607064196479e-03  5.4425766627856740e-04  2.1547547542937574e-04  8.0393565079700535e-05  2.8387463173652391e-05  9.5181779227361190e-06  3.0245422473454718e-06  8.9439502265203697e-07  2.3650139487041181e-07  8.6946795004988457e-08  1.4293741766394302e-01  1.3731947682500176e-01  1.2177188284507293e-01  9.9714500211450299e-02  7.5446858318915330e-02  5.2792466173705921e-02  3.4199586514425596e-02  2.0537325640874692e-02  1.1449210173671183e-02  5.9350235812465919e-03  2.8658790326084489e-03  1.2915556669958145e-03  5.4432456041639266e-04  2.1495574760358989e-04  7.9672747861688923e-05  2.7737836503041374e-05  9.0589903310312722e-06  2.7606370465869627e-06  7.7600710162157426e-07  2.0314070058912312e-07  8.3805449666902817e-08  1.4293726139285359e-01  1.3731930718125027e-01  1.2177172924698905e-01  9.9714402547133679e-02  7.5446861471215640e-02  5.2792599386271878e-02  3.4199827259690306e-02  2.0537579149035364e-02  1.1449340770648854e-02  5.9349298641644520e-03  2.8655571837922058e-03  1.2911007779067346e-03  5.4387282920153744e-04  2.1461445454857016e-04  7.9482828919856131e-05  2.7679862104254826e-05  9.0837607657873053e-06  2.8195868867625437e-06  8.3797702239185368e-07  2.5753648923548139e-07  1.3649270724708515e-07  1.4293728995879143e-01  1.3731934131682658e-01  1.2177176735013601e-01  9.9714441533353237e-02  7.5446896145224540e-02  5.2792621500255710e-02  3.4199825825082075e-02  2.0537544811721830e-02  1.1449273987986605e-02  5.9348466541288948e-03  2.8654851586831266e-03  1.2910657420138474e-03  5.4388516757411076e-04  2.1466509923529094e-04  7.9550476602825940e-05  2.7742886068475312e-05  9.1288270923068590e-06  2.8435048234967249e-06  8.4449048976732189e-07  2.5293373246088769e-07  1.2717190279479458e-07  1.4293728954496424e-01  1.3731934075212912e-01  1.2177176645851670e-01  9.9714440055775566e-02  7.5446893847520236e-02  5.2792618386603742e-02  3.4199822502969865e-02  2.0537542913455980e-02  1.1449276166620222e-02  5.9348555581645234e-03  2.8655015617267071e-03  1.2910871566720881e-03  5.4390637348159865e-04  2.1468057402774431e-04  7.9557091301569045e-05  2.7741055320474541e-05  9.1216267488815496e-06  2.8346945441428363e-06  8.3675020802987960e-07  2.4699945984624137e-07  1.2177680395979253e-07  1.4293728900213998e-01  1.3731934009154506e-01  1.2177176572455919e-01  9.9714439333345103e-02  7.5446893256479922e-02  5.2792618066687946e-02  3.4199822585228315e-02  2.0537543461440252e-02  1.1449277070924557e-02  5.9348564240007430e-03  2.8655017179179255e-03  1.2910859044863504e-03  5.4390340389508251e-04  2.1467626592371129e-04  7.9552423172495241e-05  2.7737152635668484e-05  9.1192545603715599e-06  2.8340216367819448e-06  8.3747350266324897e-07  2.4865486571117041e-07  1.2395291699644033e-07  1.4293728909283934e-01  1.3731934021138117e-01  1.2177176587102261e-01  9.9714439496017521e-02  7.5446893416074690e-02  5.2792618195347051e-02  3.4199822648188147e-02  2.0537543420096050e-02  1.1449276889530463e-02  5.9348560857810104e-03  2.8655012530803547e-03  1.2910854158340050e-03  5.4390305876711876e-04  2.1467623452298885e-04  7.9552787518975040e-05  2.7737847381485624e-05  9.1200869979846736e-06  2.8347617167663060e-06  8.3795981585712544e-07  2.4886841845025541e-07  1.2405026773046461e-07  1.4293728913763784e-01  1.3731934020026884e-01  1.2177176578609275e-01  9.9714439350189088e-02  7.5446893245636096e-02  5.2792618046064180e-02  3.4199822558820689e-02  2.0537543410401409e-02  1.1449276958190705e-02  5.9348562178419577e-03  2.8655014304234264e-03  1.2910856224781398e-03  5.4390327756258510e-04  2.1467644026330765e-04  7.9552946280133082e-05  2.7737927133553922e-05  9.1200733208570245e-06  2.8346654625618929e-06  8.3780818586220584e-07  2.4868384474827065e-07  1.2383348242234955e-07  1.4293728944860307e-01  1.3731934061602921e-01  1.2177176634339501e-01  9.9714439920912584e-02  7.5446893630228717e-02  5.2792618082384016e-02  3.4199822201536403e-02  2.0537542746518610e-02  1.1449276158588853e-02  5.9348554592118163e-03  2.8655008318337108e-03  1.2910852226058298e-03  5.4390305045106258e-04  2.1467632959518786e-04  7.9552897155109534e-05  2.7737903756605948e-05  9.1200615426405151e-06  2.8346656329852442e-06  8.3782533293434197e-07  2.4871978623219771e-07  1.2388137344691470e-07  1.4293728074095044e-01  1.3731933375070751e-01  1.2177176179948178e-01  9.9714438275009379e-02  7.5446895124819210e-02  5.2792622290382528e-02  3.4199828031568132e-02  2.0537548804418816e-02  1.1449281248132931e-02  5.9348589379614571e-03  2.8655026682781726e-03  1.2910858021714152e-03  5.4390289633305126e-04  2.1467588845467669e-04  7.9552448293063681e-05  2.7737568355453100e-05  9.1198572515018422e-06  2.8345623592592068e-06  8.3778272864978954e-07  2.4870555541115422e-07  1.2387683397552390e-07  1.4293733679542278e-01  1.3731937293163626e-01  1.2177177758332154e-01  9.9714430505291815e-02  7.5446869548857584e-02  5.2792588576229066e-02  3.4199796373434045e-02  2.0537526487154564e-02  1.1449270819261724e-02  5.9348586567199444e-03  2.8655085237128206e-03  1.2910937180604079e-03  5.4391008379473969e-04  2.1468112392208802e-04  7.9555658285469314e-05  2.7739232695176495e-05  9.1205560496707303e-06  2.8347531861876108e-06  8.3775209806804918e-07  2.4860478558169202e-07  1.2377625397692100e-07  1.4293744525897492e-01  1.3731949126237691e-01  1.2177193232150750e-01  9.9714605812296589e-02  7.5447023462981211e-02  5.2792679020809218e-02  3.4199803328942173e-02  2.0537459707694446e-02  1.1449161357197504e-02  5.9347420777732520e-03  2.8654107416234971e-03  1.2910256608080083e-03  5.4387038460664016e-04  2.1466221935708606e-04  7.9549124343514333e-05  2.7738620175743047e-05  9.1220110179608137e-06  2.8364690075370174e-06  8.3914170453789220e-07  2.4963786191417680e-07  1.2458234015683835e-07  1.4293421301698961e-01  1.3731679632687713e-01  1.2177008103858862e-01  9.9713737698887125e-02  7.5447101078419648e-02  5.2793487087654599e-02  3.4200997948802284e-02  2.0538678921028973e-02  1.1450142356979706e-02  5.9353780030221934e-03  2.8657293314373910e-03  1.2911240298224551e-03  5.4385232867891909e-04  2.1460354447585286e-04  7.9490934615016658e-05  2.7695963932840017e-05  9.0957925254269615e-06  2.8223607412149237e-06  8.3228652886676024e-07  2.4631509905145927e-07  1.2237949761509226e-07  1.4293217945721451e-01  1.3731435497379244e-01  1.2176587628712210e-01  9.9707298875088016e-02  7.5439393283553882e-02  5.2786437130595595e-02  3.4196317988517654e-02  2.0536979764450614e-02  1.1450885988347540e-02  5.9374481828523701e-03  2.8680714084953537e-03  1.2930900906110642e-03  5.4522018679862476e-04  2.1542439592774282e-04  7.9921968527776449e-05  2.7893155563994241e-05  9.1715691858050666e-06  2.8432598045459905e-06  8.3193873675804943e-07  2.3960582912571888e-07  1.1570157411268711e-07  1.4301558344920801e-01  1.3739324049404553e-01  1.2182820294551211e-01  9.9737265090373478e-02  7.5429843330501165e-02  5.2744305677886773e-02  3.4138106998080710e-02  2.0479784245173421e-02  1.1405715909615302e-02  5.9076560913305888e-03  2.8515798584091124e-03  1.2856597876725793e-03  5.4283298594045204e-04  2.1528827485498136e-04  8.0494619895652203e-05  2.8501750556897842e-05  9.6135170451317893e-06  3.1145338161523857e-06  9.8595579695337234e-07  3.3103372720582756e-07  1.8445834573717715e-07  1.4317870630647436e-01  1.3764723406510224e-01  1.2216348609191657e-01  1.0004558558311415e-01  7.5605617487931862e-02  5.2746105145631515e-02  3.3995022123630529e-02  2.0259858298972540e-02  1.1177232407977678e-02  5.7152919493393415e-03  2.7120979243340426e-03  1.1959221337104209e-03  4.9069141137132646e-04  1.8760425978917895e-04  6.6956251807148335e-05  2.2374524309670644e-05  7.0459592077445639e-06  2.1270258809911929e-06  6.4855404652310032e-07  2.3321402297627619e-07  1.2773630521583145e-07  1.4133075341857304e-01  1.3739294484095077e-01  1.2295854210313720e-01  1.0125351617028495e-01  7.6673017731717960e-02  5.3349983558109049e-02  3.4076971655638805e-02  1.9950967759782629e-02  1.0678374004312213e-02  5.1999598334803313e-03  2.2826438045274221e-03  8.8615294820772997e-04  2.9068960029589243e-04  6.9629709448638854e-05  2.4360513095054675e-06  -1.0736680061461734e-05  -9.0768666118106575e-06  -5.4189972913364514e-06  -2.8348095185402100e-06  -1.4947756435980424e-06  -1.0645520010758063e-06  </DataArray> 
</PointData> 
</Piece>
</UnstructuredGrid>
</VTKFile>