<?xml version="1.0"?>
<VTKFile type="UnstructuredGrid"  version="0.1"  >
<UnstructuredGrid>
<Piece  NumberOfPoints="441" NumberOfCells="800">
<Points>
<DataArray  type="Float64"  NumberOfComponents="3"  format="ascii">-2 -2 0  -1.8 -2 0  -1.6 -2 0  -1.4 -2 0  -1.2 -2 0  -1 -2 0  -0.8 -2 0  -0.6000000000000001 -2 0  -0.3999999999999999 -2 0  -0.2 -2 0  0 -2 0  0.2000000000000002 -2 0  0.3999999999999999 -2 0  0.6000000000000001 -2 0  0.7999999999999998 -2 0  1 -2 0  1.2 -2 0  1.4 -2 0  1.6 -2 0  1.8 -2 0  2 -2 0  -2 -1.8 0  -1.8 -1.8 0  -1.6 -1.8 0  -1.4 -1.8 0  -1.2 -1.8 0  -1 -1.8 0  -0.8 -1.8 0  -0.6000000000000001 -1.8 0  -0.3999999999999999 -1.8 0  -0.2 -1.8 0  0 -1.8 0  0.2000000000000002 -1.8 0  0.3999999999999999 -1.8 0  0.6000000000000001 -1.8 0  0.7999999999999998 -1.8 0  1 -1.8 0  1.2 -1.8 0  1.4 -1.8 0  1.6 -1.8 0  1.8 -1.8 0  2 -1.8 0  -2 -1.6 0  -1.8 -1.6 0  -1.6 -1.6 0  -1.4 -1.6 0  -1.2 -1.6 0  -1 -1.6 0  -0.8 -1.6 0  -0.6000000000000001 -1.6 0  -0.3999999999999999 -1.6 0  -0.2 -1.6 0  0 -1.6 0  0.2000000000000002 -1.6 0  0.3999999999999999 -1.6 0  0.6000000000000001 -1.6 0  0.7999999999999998 -1.6 0  1 -1.6 0  1.2 -1.6 0  1.4 -1.6 0  1.6 -1.6 0  1.8 -1.6 0  2 -1.6 0  -2 -1.4 0  -1.8 -1.4 0  -1.6 -1.4 0  -1.4 -1.4 0  -1.2 -1.4 0  -1 -1.4 0  -0.8 -1.4 0  -0.6000000000000001 -1.4 0  -0.3999999999999999 -1.4 0  -0.2 -1.4 0  0 -1.4 0  0.2000000000000002 -1.4 0  0.3999999999999999 -1.4 0  0.6000000000000001 -1.4 0  0.7999999999999998 -1.4 0  1 -1.4 0  1.2 -1.4 0  1.4 -1.4 0  1.6 -1.4 0  1.8 -1.4 0  2 -1.4 0  -2 -1.2 0  -1.8 -1.2 0  -1.6 -1.2 0  -1.4 -1.2 0  -1.2 -1.2 0  -1 -1.2 0  -0.8 -1.2 0  -0.6000000000000001 -1.2 0  -0.3999999999999999 -1.2 0  -0.2 -1.2 0  0 -1.2 0  0.2000000000000002 -1.2 0  0.3999999999999999 -1.2 0  0.6000000000000001 -1.2 0  0.7999999999999998 -1.2 0  1 -1.2 0  1.2 -1.2 0  1.4 -1.2 0  1.6 -1.2 0  1.8 -1.2 0  2 -1.2 0  -2 -1 0  -1.8 -1 0  -1.6 -1 0  -1.4 -1 0  -1.2 -1 0  -1 -1 0  -0.8 -1 0  -0.6000000000000001 -1 0  -0.3999999999999999 -1 0  -0.2 -1 0  0 -1 0  0.2000000000000002 -1 0  0.3999999999999999 -1 0  0.6000000000000001 -1 0  0.7999999999999998 -1 0  1 -1 0  1.2 -1 0  1.4 -1 0  1.6 -1 0  1.8 -1 0  2 -1 0  -2 -0.8 0  -1.8 -0.8 0  -1.6 -0.8 0  -1.4 -0.8 0  -1.2 -0.8 0  -1 -0.8 0  -0.8 -0.8 0  -0.6000000000000001 -0.8 0  -0.3999999999999999 -0.8 0  -0.2 -0.8 0  0 -0.8 0  0.2000000000000002 -0.8 0  0.3999999999999999 -0.8 0  0.6000000000000001 -0.8 0  0.7999999999999998 -0.8 0  1 -0.8 0  1.2 -0.8 0  1.4 -0.8 0  1.6 -0.8 0  1.8 -0.8 0  2 -0.8 0  -2 -0.6000000000000001 0  -1.8 -0.6000000000000001 0  -1.6 -0.6000000000000001 0  -1.4 -0.6000000000000001 0  -1.2 -0.6000000000000001 0  -1 -0.6000000000000001 0  -0.8 -0.6000000000000001 0  -0.6000000000000001 -0.6000000000000001 0  -0.3999999999999999 -0.6000000000000001 0  -0.2 -0.6000000000000001 0  0 -0.6000000000000001 0  0.2000000000000002 -0.6000000000000001 0  0.3999999999999999 -0.6000000000000001 0  0.6000000000000001 -0.6000000000000001 0  0.7999999999999998 -0.6000000000000001 0  1 -0.6000000000000001 0  1.2 -0.6000000000000001 0  1.4 -0.6000000000000001 0  1.6 -0.6000000000000001 0  1.8 -0.6000000000000001 0  2 -0.6000000000000001 0  -2 -0.3999999999999999 0  -1.8 -0.3999999999999999 0  -1.6 -0.3999999999999999 0  -1.4 -0.3999999999999999 0  -1.2 -0.3999999999999999 0  -1 -0.3999999999999999 0  -0.8 -0.3999999999999999 0  -0.6000000000000001 -0.3999999999999999 0  -0.3999999999999999 -0.3999999999999999 0  -0.2 -0.3999999999999999 0  0 -0.3999999999999999 0  0.2000000000000002 -0.3999999999999999 0  0.3999999999999999 -0.3999999999999999 0  0.6000000000000001 -0.3999999999999999 0  0.7999999999999998 -0.3999999999999999 0  1 -0.3999999999999999 0  1.2 -0.3999999999999999 0  1.4 -0.3999999999999999 0  1.6 -0.3999999999999999 0  1.8 -0.3999999999999999 0  2 -0.3999999999999999 0  -2 -0.2 0  -1.8 -0.2 0  -1.6 -0.2 0  -1.4 -0.2 0  -1.2 -0.2 0  -1 -0.2 0  -0.8 -0.2 0  -0.6000000000000001 -0.2 0  -0.3999999999999999 -0.2 0  -0.2 -0.2 0  0 -0.2 0  0.2000000000000002 -0.2 0  0.3999999999999999 -0.2 0  0.6000000000000001 -0.2 0  0.7999999999999998 -0.2 0  1 -0.2 0  1.2 -0.2 0  1.4 -0.2 0  1.6 -0.2 0  1.8 -0.2 0  2 -0.2 0  -2 0 0  -1.8 0 0  -1.6 0 0  -1.4 0 0  -1.2 0 0  -1 0 0  -0.8 0 0  -0.6000000000000001 0 0  -0.3999999999999999 0 0  -0.2 0 0  0 0 0  0.2000000000000002 0 0  0.3999999999999999 0 0  0.6000000000000001 0 0  0.7999999999999998 0 0  1 0 0  1.2 0 0  1.4 0 0  1.6 0 0  1.8 0 0  2 0 0  -2 0.2000000000000002 0  -1.8 0.2000000000000002 0  -1.6 0.2000000000000002 0  -1.4 0.2000000000000002 0  -1.2 0.2000000000000002 0  -1 0.2000000000000002 0  -0.8 0.2000000000000002 0  -0.6000000000000001 0.2000000000000002 0  -0.3999999999999999 0.2000000000000002 0  -0.2 0.2000000000000002 0  0 0.2000000000000002 0  0.2000000000000002 0.2000000000000002 0  0.3999999999999999 0.2000000000000002 0  0.6000000000000001 0.2000000000000002 0  0.7999999999999998 0.2000000000000002 0  1 0.2000000000000002 0  1.2 0.2000000000000002 0  1.4 0.2000000000000002 0  1.6 0.2000000000000002 0  1.8 0.2000000000000002 0  2 0.2000000000000002 0  -2 0.3999999999999999 0  -1.8 0.3999999999999999 0  -1.6 0.3999999999999999 0  -1.4 0.3999999999999999 0  -1.2 0.3999999999999999 0  -1 0.3999999999999999 0  -0.8 0.3999999999999999 0  -0.6000000000000001 0.3999999999999999 0  -0.3999999999999999 0.3999999999999999 0  -0.2 0.3999999999999999 0  0 0.3999999999999999 0  0.2000000000000002 0.3999999999999999 0  0.3999999999999999 0.3999999999999999 0  0.6000000000000001 0.3999999999999999 0  0.7999999999999998 0.3999999999999999 0  1 0.3999999999999999 0  1.2 0.3999999999999999 0  1.4 0.3999999999999999 0  1.6 0.3999999999999999 0  1.8 0.3999999999999999 0  2 0.3999999999999999 0  -2 0.6000000000000001 0  -1.8 0.6000000000000001 0  -1.6 0.6000000000000001 0  -1.4 0.6000000000000001 0  -1.2 0.6000000000000001 0  -1 0.6000000000000001 0  -0.8 0.6000000000000001 0  -0.6000000000000001 0.6000000000000001 0  -0.3999999999999999 0.6000000000000001 0  -0.2 0.6000000000000001 0  0 0.6000000000000001 0  0.2000000000000002 0.6000000000000001 0  0.3999999999999999 0.6000000000000001 0  0.6000000000000001 0.6000000000000001 0  0.7999999999999998 0.6000000000000001 0  1 0.6000000000000001 0  1.2 0.6000000000000001 0  1.4 0.6000000000000001 0  1.6 0.6000000000000001 0  1.8 0.6000000000000001 0  2 0.6000000000000001 0  -2 0.7999999999999998 0  -1.8 0.7999999999999998 0  -1.6 0.7999999999999998 0  -1.4 0.7999999999999998 0  -1.2 0.7999999999999998 0  -1 0.7999999999999998 0  -0.8 0.7999999999999998 0  -0.6000000000000001 0.7999999999999998 0  -0.3999999999999999 0.7999999999999998 0  -0.2 0.7999999999999998 0  0 0.7999999999999998 0  0.2000000000000002 0.7999999999999998 0  0.3999999999999999 0.7999999999999998 0  0.6000000000000001 0.7999999999999998 0  0.7999999999999998 0.7999999999999998 0  1 0.7999999999999998 0  1.2 0.7999999999999998 0  1.4 0.7999999999999998 0  1.6 0.7999999999999998 0  1.8 0.7999999999999998 0  2 0.7999999999999998 0  -2 1 0  -1.8 1 0  -1.6 1 0  -1.4 1 0  -1.2 1 0  -1 1 0  -0.8 1 0  -0.6000000000000001 1 0  -0.3999999999999999 1 0  -0.2 1 0  0 1 0  0.2000000000000002 1 0  0.3999999999999999 1 0  0.6000000000000001 1 0  0.7999999999999998 1 0  1 1 0  1.2 1 0  1.4 1 0  1.6 1 0  1.8 1 0  2 1 0  -2 1.2 0  -1.8 1.2 0  -1.6 1.2 0  -1.4 1.2 0  -1.2 1.2 0  -1 1.2 0  -0.8 1.2 0  -0.6000000000000001 1.2 0  -0.3999999999999999 1.2 0  -0.2 1.2 0  0 1.2 0  0.2000000000000002 1.2 0  0.3999999999999999 1.2 0  0.6000000000000001 1.2 0  0.7999999999999998 1.2 0  1 1.2 0  1.2 1.2 0  1.4 1.2 0  1.6 1.2 0  1.8 1.2 0  2 1.2 0  -2 1.4 0  -1.8 1.4 0  -1.6 1.4 0  -1.4 1.4 0  -1.2 1.4 0  -1 1.4 0  -0.8 1.4 0  -0.6000000000000001 1.4 0  -0.3999999999999999 1.4 0  -0.2 1.4 0  0 1.4 0  0.2000000000000002 1.4 0  0.3999999999999999 1.4 0  0.6000000000000001 1.4 0  0.7999999999999998 1.4 0  1 1.4 0  1.2 1.4 0  1.4 1.4 0  1.6 1.4 0  1.8 1.4 0  2 1.4 0  -2 1.6 0  -1.8 1.6 0  -1.6 1.6 0  -1.4 1.6 0  -1.2 1.6 0  -1 1.6 0  -0.8 1.6 0  -0.6000000000000001 1.6 0  -0.3999999999999999 1.6 0  -0.2 1.6 0  0 1.6 0  0.2000000000000002 1.6 0  0.3999999999999999 1.6 0  0.6000000000000001 1.6 0  0.7999999999999998 1.6 0  1 1.6 0  1.2 1.6 0  1.4 1.6 0  1.6 1.6 0  1.8 1.6 0  2 1.6 0  -2 1.8 0  -1.8 1.8 0  -1.6 1.8 0  -1.4 1.8 0  -1.2 1.8 0  -1 1.8 0  -0.8 1.8 0  -0.6000000000000001 1.8 0  -0.3999999999999999 1.8 0  -0.2 1.8 0  0 1.8 0  0.2000000000000002 1.8 0  0.3999999999999999 1.8 0  0.6000000000000001 1.8 0  0.7999999999999998 1.8 0  1 1.8 0  1.2 1.8 0  1.4 1.8 0  1.6 1.8 0  1.8 1.8 0  2 1.8 0  -2 2 0  -1.8 2 0  -1.6 2 0  -1.4 2 0  -1.2 2 0  -1 2 0  -0.8 2 0  -0.6000000000000001 2 0  -0.3999999999999999 2 0  -0.2 2 0  0 2 0  0.2000000000000002 2 0  0.3999999999999999 2 0  0.6000000000000001 2 0  0.7999999999999998 2 0  1 2 0  1.2 2 0  1.4 2 0  1.6 2 0  1.8 2 0  2 2 0  </DataArray>
</Points>
<Cells>
[...]
<PointData  Scalars="f_8"> 
<DataArray  type="Float64"  Name="f_8"  format="ascii">6.2264995689419393e-02  0.0000000000000000e+00  0.0000000000000000e+00  0.0000000000000000e+00  0.0000000000000000e+00  0.0000000000000000e+00  0.0000000000000000e+00  0.0000000000000000e+00  0.0000000000000000e+00  0.0000000000000000e+00  0.0000000000000000e+00  0.0000000000000000e+00  0.0000000000000000e+00  0.0000000000000000e+00  0.0000000000000000e+00  0.0000000000000000e+00  0.0000000000000000e+00  0.0000000000000000e+00  0.0000000000000000e+00  0.0000000000000000e+00  0.0000000000000000e+00  5.1666116515121974e-01  5.0614458987102073e-01  4.8362420181576593e-01  4.5110721538016152e-01  4.1047552781548380e-01  3.6423480168078820e-01  3.1517322019166555e-01  2.6599814971946034e-01  2.1904288197815058e-01  1.7608108223734931e-01  1.3825400040432978e-01  1.0609435506818302e-01  7.9618734787323647e-02  5.8456558558402531e-02  4.1986547595518509e-02  2.9458844446850155e-02  2.0089694443769429e-02  1.3123769201255507e-02  7.8654313623320767e-03  3.6840618926038795e-03  0.0000000000000000e+00  7.3604952353740716e-01  7.2720534182721308e-01  6.9945527133008967e-01  6.5520303882791509e-01  5.9788230108265239e-01  5.3160024140585549e-01  4.6069998497912273e-01  3.8929828445106263e-01  3.2090633882044634e-01  2.5818739652740363e-01  2.0286426488540052e-01  1.5575943771184803e-01  1.1693141103531897e-01  8.5863395755007024e-02  6.1663397999926414e-02  4.3244131472089428e-02  2.9463515807677573e-02  1.9218257195136226e-02  1.1492106885249969e-02  5.3660607783389798e-03  0.0000000000000000e+00  7.9152571099377245e-01  7.8164764745647308e-01  7.5168750902094994e-01  7.0404408006138952e-01  6.4236377111379661e-01  5.7107311456008114e-01  4.9484946038143890e-01  4.1811567182745657e-01  3.4463703129057316e-01  2.7726596689901389e-01  2.1784581905065192e-01  1.6725511435959617e-01  1.2555394084267785e-01  9.2186075606247864e-02  6.6193265860742243e-02  4.6408050380763469e-02  3.1604561178253110e-02  2.0599277773060875e-02  1.2303450206174663e-02  5.7349867101148672e-03  0.0000000000000000e+00  8.0090943966767114e-01  7.9050399306303465e-01  7.5987748123372478e-01  7.1145761049099743e-01  6.4892991346594131e-01  5.7676316987761156e-01  4.9967332398572312e-01  4.2211589114918563e-01  3.4788148863393809e-01  2.7983972941589780e-01  2.1984291403574527e-01  1.6877105314928445e-01  1.2667964458349337e-01  9.3003553685258603e-02  6.6773082763855504e-02  4.6808371646543737e-02  3.1871430294480307e-02  2.0767743005966923e-02  1.2399211687290093e-02  5.7763411646345100e-03  0.0000000000000000e+00  8.0215671306619674e-01  7.9163725528859807e-01  7.6088894298355902e-01  7.1234456019115067e-01  6.4969394964020233e-01  5.7740944802254590e-01  5.0020978938122262e-01  4.2255260247541182e-01  3.4822993772638994e-01  2.8011212921950057e-01  2.2005149974647087e-01  1.6892746738739511e-01  1.2679446516411594e-01  9.3085992677355303e-02  6.6830854570154932e-02  4.6847705098274323e-02  3.1897188278707411e-02  2.0783611752374323e-02  1.2407927103472370e-02  5.7799272541404698e-03  0.0000000000000000e+00  8.0229830314807959e-01  7.9176162328706856e-01  7.6099653125017519e-01  7.1243628651846302e-01  6.4977101207144539e-01  5.7747320288136084e-01  5.0026167822314782e-01  4.2259410571043787e-01  3.4826253303399307e-01  2.8013724763377951e-01  2.2007048221593375e-01  1.6894152782062483e-01  1.2680466489752160e-01  9.3093228539824061e-02  6.6835859987414134e-02  4.6851061794849345e-02  3.1899345268534704e-02  2.0784908257670130e-02  1.2408616448774690e-02  5.7801992932159877e-03  0.0000000000000000e+00  8.0231268782065523e-01  7.9177389109000762e-01  7.6100686001694540e-01  7.1244487840754456e-01  6.4977807189744607e-01  5.7747892781100063e-01  5.0026625413257442e-01  4.2259770623775667e-01  3.4826531883593986e-01  2.8013936513627846e-01  2.2007206212455707e-01  1.6894268392614292e-01  1.2680549359377724e-01  9.3093809224200380e-02  6.6836256286969944e-02  4.6851323414186880e-02  3.1899510193762221e-02  2.0785005052626634e-02  1.2408666416657256e-02  5.7802183269784081e-03  0.0000000000000000e+00  8.0231403362194120e-01  7.9177500973428305e-01  7.6100777985448886e-01  7.1244562718786431e-01  6.4977867510754850e-01  5.7747940819123933e-01  5.0026663178382802e-01  4.2259799889745231e-01  3.4826554210965727e-01  2.8013953263889491e-01  2.2007218556384361e-01  1.6894277317837339e-01  1.2680555680745947e-01  9.3093852966549651e-02  6.6836285729568318e-02  4.6851342543282611e-02  3.1899522026577816e-02  2.0785011841904961e-02  1.2408669829392257e-02  5.7802195884221353e-03  0.0000000000000000e+00  8.0231415175258225e-01  7.9177510573692000e-01  7.6100785716629293e-01  7.1244568891807958e-01  6.4977872395198144e-01  5.7747944644398019e-01  5.0026666138870945e-01  4.2259802150345938e-01  3.4826555911535195e-01  2.8013954522437151e-01  2.2007219471422040e-01  1.6894277970345789e-01  1.2680556136078572e-01  9.3093856065166042e-02  6.6836287774541259e-02  4.6851343840082327e-02  3.1899522804261039e-02  2.0785012270133924e-02  1.2408670032671754e-02  5.7802196573797406e-03  0.0000000000000000e+00  8.0231416147565771e-01  7.9177511340979678e-01  7.6100786314054369e-01  7.1244569349689113e-01  6.4977872739042486e-01  5.7747944895554537e-01  5.0026666315318524e-01  4.2259802267357444e-01  3.4826555982144053e-01  2.8013954557735132e-01  2.2007219480751342e-01  1.6894277961445181e-01  1.2680556115225100e-01  9.3093855786852198e-02  6.6836287465033561e-02  4.6851343528928807e-02  3.1899522514374480e-02  2.0785012020527252e-02  1.2408669841687321e-02  5.7802195467148137e-03  0.0000000000000000e+00  8.0231416029342006e-01  7.9177511141824342e-01  7.6100786029895162e-01  7.1244568980008516e-01  6.4977872287874283e-01  5.7747944371771265e-01  5.0026665732171605e-01  4.2259801641409561e-01  3.4826555331837117e-01  2.8013953901861482e-01  2.2007218837062170e-01  1.6894277345564920e-01  1.2680555539968930e-01  9.3093850538161188e-02  6.6836282789264553e-02  4.6851339472730485e-02  3.1899519112438407e-02  2.0785009310812404e-02  1.2408667886694376e-02  5.7802184630987904e-03  0.0000000000000000e+00  8.0231413214205805e-01  7.9177507499094346e-01  7.6100781509185722e-01  7.1244563593873989e-01  6.4977866115533289e-01  5.7747937552572726e-01  5.0026658450959127e-01  4.2259794109244153e-01  3.4826547765725852e-01  2.8013946506535686e-01  2.2007211790860809e-01  1.6894270791444993e-01  1.2680549581803027e-01  9.3093797575558246e-02  6.6836236779398497e-02  4.6851300511942466e-02  3.1899487179710709e-02  2.0784984420926376e-02  1.2408650285528452e-02  5.7802088826855273e-03  0.0000000000000000e+00  8.0231374319144788e-01  7.9177458580700510e-01  7.6100722609928118e-01  7.1244495576555411e-01  6.4977790586442519e-01  5.7747856677438547e-01  5.0026574711410343e-01  4.2259710048957599e-01  3.4826465765637460e-01  2.8013868614002430e-01  2.2007139613400656e-01  1.6894205454335215e-01  1.2680491741349323e-01  9.3093296582026253e-02  6.6835812410479131e-02  4.6850949855945623e-02  3.1899206466677196e-02  2.0784770451634581e-02  1.2408502088572186e-02  5.7801297339062207e-03  0.0000000000000000e+00  8.0230863448932332e-01  7.9176836601362721e-01  7.6099998748621389e-01  7.1243687867647898e-01  6.4976923621704885e-01  5.7746958644404356e-01  5.0025674349987170e-01  4.2258834010538338e-01  3.4825636658745523e-01  2.8013103836202125e-01  2.2006450931835458e-01  1.6893599212284072e-01  1.2679969529180379e-01  9.3088892839939472e-02  6.6832178589486049e-02  4.6848022800262706e-02  3.1896920205656598e-02  2.0783068148598673e-02  1.2407348619662356e-02  5.7795259391093170e-03  0.0000000000000000e+00  8.0224576833100447e-01  7.9169472079788972e-01  7.6091752702498638e-01  7.1234827163692205e-01  6.4967752162156112e-01  5.7737783538247323e-01  5.0016777162877069e-01  4.2250450096437658e-01  3.4817943392929024e-01  2.8006217051275301e-01  2.2000427992956645e-01  1.6888446812693195e-01  1.2675654295629277e-01  9.3053495345182827e-02  6.6803752584093948e-02  4.6825726156991050e-02  3.1879948094098706e-02  2.0770739086812390e-02  1.2399186002452430e-02  5.7753433431475300e-03  0.0000000000000000e+00  8.0154048106558740e-01  7.9090550145578142e-01  7.6007133937346827e-01  7.1147516020175017e-01  6.4880743279194619e-01  5.7653788457814881e-01  4.9938029868491945e-01  4.2178600370060115e-01  3.4754030406560771e-01  2.7950706952506327e-01  2.1953296005892584e-01  1.6849284603677134e-01  1.2643785800686658e-01  9.2799422501387216e-02  6.6605384486262798e-02  4.6674383674588593e-02  3.1767818804228042e-02  2.0691375234206454e-02  1.2347915768016405e-02  5.7496608102992498e-03  0.0000000000000000e+00  7.9467584962257276e-01  7.8362515346222716e-01  7.5262305466646262e-01  7.0410357606997320e-01  6.4173365961904705e-01  5.6994332787258772e-01  4.9339737736364903e-01  4.1649567652541386e-01  3.4297515687352631e-01  2.7565831622253134e-01  2.1635967966184202e-01  1.6593195560863591e-01  1.2441362909642964e-01  9.1231726051224010e-02  6.5416237507950004e-02  4.5792718926006025e-02  3.1132670827862679e-02  2.0253856370036211e-02  1.2072444524350245e-02  5.6149130040396983e-03  0.0000000000000000e+00  7.4255670579994448e-01  7.3140719556619949e-01  7.0153550776013252e-01  6.5541116045693126e-01  5.9654180154159309e-01  5.2908536422094754e-01  4.5738797411228616e-01  3.8553392010196386e-01  3.1698201349772792e-01  2.5433466422821543e-01  1.9925292518161994e-01  1.5250155929752884e-01  1.1408864746602385e-01  8.3456399152317812e-02  5.9682344860141789e-02  4.1659560838049170e-02  2.8236951786799639e-02  1.8312451006913082e-02  1.0881129257589871e-02  5.0458193598924665e-03  0.0000000000000000e+00  5.1398513952113889e-01  5.0569659123600263e-01  4.8441541667623000e-01  4.5197151802065594e-01  4.1084057459838724e-01  3.6389965022670273e-01  3.1413831816768395e-01  2.6436405528752771e-01  2.1695550997038776e-01  1.7370164218565817e-01  1.3574038539717126e-01  1.0358811592029839e-01  7.7236055454555572e-02  5.6283353157640610e-02  4.0077970044949313e-02  2.7843063244882844e-02  1.8775349282561263e-02  1.2110376310221712e-02  7.1561606685024374e-03  3.3006456820240193e-03  0.0000000000000000e+00  5.2071363634777525e-02  0.0000000000000000e+00  0.0000000000000000e+00  0.0000000000000000e+00  0.0000000000000000e+00  0.0000000000000000e+00  0.0000000000000000e+00  0.0000000000000000e+00  0.0000000000000000e+00  0.0000000000000000e+00  0.0000000000000000e+00  0.0000000000000000e+00  0.0000000000000000e+00  0.0000000000000000e+00  0.0000000000000000e+00  0.0000000000000000e+00  0.0000000000000000e+00  0.0000000000000000e+00  0.0000000000000000e+00  0.0000000000000000e+00  0.0000000000000000e+00  </DataArray> 
</PointData> 
</Piece>
</UnstructuredGrid>
</VTKFile>