<?xml version="1.0"?>
<VTKFile type="UnstructuredGrid"  version="0.1"  >
<UnstructuredGrid>
<Piece  NumberOfPoints="441" NumberOfCells="800">
<Points>
<DataArray  type="Float64"  NumberOfComponents="3"  format="ascii">-2 -2 0  -1.8 -2 0  -1.6 -2 0  -1.4 -2 0  -1.2 -2 0  -1 -2 0  -0.8 -2 0  -0.6000000000000001 -2 0  -0.3999999999999999 -2 0  -0.2 -2 0  0 -2 0  0.2000000000000002 -2 0  0.3999999999999999 -2 0  0.6000000000000001 -2 0  0.7999999999999998 -2 0  1 -2 0  1.2 -2 0  1.4 -2 0  1.6 -2 0  1.8 -2 0  2 -2 0  -2 -1.8 0  -1.8 -1.8 0  -1.6 -1.8 0  -1.4 -1.8 0  -1.2 -1.8 0  -1 -1.8 0  -0.8 -1.8 0  -0.6000000000000001 -1.8 0  -0.3999999999999999 -1.8 0  -0.2 -1.8 0  0 -1.8 0  0.2000000000000002 -1.8 0  0.3999999999999999 -1.8 0  0.6000000000000001 -1.8 0  0.7999999999999998 -1.8 0  1 -1.8 0  1.2 -1.8 0  1.4 -1.8 0  1.6 -1.8 0  1.8 -1.8 0  2 -1.8 0  -2 -1.6 0  -1.8 -1.6 0  -1.6 -1.6 0  -1.4 -1.6 0  -1.2 -1.6 0  -1 -1.6 0  -0.8 -1.6 0  -0.6000000000000001 -1.6 0  -0.3999999999999999 -1.6 0  -0.2 -1.6 0  0 -1.6 0  0.2000000000000002 -1.6 0  0.3999999999999999 -1.6 0  0.6000000000000001 -1.6 0  0.7999999999999998 -1.6 0  1 -1.6 0  1.2 -1.6 0  1.4 -1.6 0  1.6 -1.6 0  1.8 -1.6 0  2 -1.6 0  -2 -1.4 0  -1.8 -1.4 0  -1.6 -1.4 0  -1.4 -1.4 0  -1.2 -1.4 0  -1 -1.4 0  -0.8 -1.4 0  -0.6000000000000001 -1.4 0  -0.3999999999999999 -1.4 0  -0.2 -1.4 0  0 -1.4 0  0.2000000000000002 -1.4 0  0.3999999999999999 -1.4 0  0.6000000000000001 -1.4 0  0.7999999999999998 -1.4 0  1 -1.4 0  1.2 -1.4 0  1.4 -1.4 0  1.6 -1.4 0  1.8 -1.4 0  2 -1.4 0  -2 -1.2 0  -1.8 -1.2 0  -1.6 -1.2 0  -1.4 -1.2 0  -1.2 -1.2 0  -1 -1.2 0  -0.8 -1.2 0  -0.6000000000000001 -1.2 0  -0.3999999999999999 -1.2 0  -0.2 -1.2 0  0 -1.2 0  0.2000000000000002 -1.2 0  0.3999999999999999 -1.2 0  0.6000000000000001 -1.2 0  0.7999999999999998 -1.2 0  1 -1.2 0  1.2 -1.2 0  1.4 -1.2 0  1.6 -1.2 0  1.8 -1.2 0  2 -1.2 0  -2 -1 0  -1.8 -1 0  -1.6 -1 0  -1.4 -1 0  -1.2 -1 0  -1 -1 0  -0.8 -1 0  -0.6000000000000001 -1 0  -0.3999999999999999 -1 0  -0.2 -1 0  0 -1 0  0.2000000000000002 -1 0  0.3999999999999999 -1 0  0.6000000000000001 -1 0  0.7999999999999998 -1 0  1 -1 0  1.2 -1 0  1.4 -1 0  1.6 -1 0  1.8 -1 0  2 -1 0  -2 -0.8 0  -1.8 -0.8 0  -1.6 -0.8 0  -1.4 -0.8 0  -1.2 -0.8 0  -1 -0.8 0  -0.8 -0.8 0  -0.6000000000000001 -0.8 0  -0.3999999999999999 -0.8 0  -0.2 -0.8 0  0 -0.8 0  0.2000000000000002 -0.8 0  0.3999999999999999 -0.8 0  0.6000000000000001 -0.8 0  0.7999999999999998 -0.8 0  1 -0.8 0  1.2 -0.8 0  1.4 -0.8 0  1.6 -0.8 0  1.8 -0.8 0  2 -0.8 0  -2 -0.6000000000000001 0  -1.8 -0.6000000000000001 0  -1.6 -0.6000000000000001 0  -1.4 -0.6000000000000001 0  -1.2 -0.6000000000000001 0  -1 -0.6000000000000001 0  -0.8 -0.6000000000000001 0  -0.6000000000000001 -0.6000000000000001 0  -0.3999999999999999 -0.6000000000000001 0  -0.2 -0.6000000000000001 0  0 -0.6000000000000001 0  0.2000000000000002 -0.6000000000000001 0  0.3999999999999999 -0.6000000000000001 0  0.6000000000000001 -0.6000000000000001 0  0.7999999999999998 -0.6000000000000001 0  1 -0.6000000000000001 0  1.2 -0.6000000000000001 0  1.4 -0.6000000000000001 0  1.6 -0.6000000000000001 0  1.8 -0.6000000000000001 0  2 -0.6000000000000001 0  -2 -0.3999999999999999 0  -1.8 -0.3999999999999999 0  -1.6 -0.3999999999999999 0  -1.4 -0.3999999999999999 0  -1.2 -0.3999999999999999 0  -1 -0.3999999999999999 0  -0.8 -0.3999999999999999 0  -0.6000000000000001 -0.3999999999999999 0  -0.3999999999999999 -0.3999999999999999 0  -0.2 -0.3999999999999999 0  0 -0.3999999999999999 0  0.2000000000000002 -0.3999999999999999 0  0.3999999999999999 -0.3999999999999999 0  0.6000000000000001 -0.3999999999999999 0  0.7999999999999998 -0.3999999999999999 0  1 -0.3999999999999999 0  1.2 -0.3999999999999999 0  1.4 -0.3999999999999999 0  1.6 -0.3999999999999999 0  1.8 -0.3999999999999999 0  2 -0.3999999999999999 0  -2 -0.2 0  -1.8 -0.2 0  -1.6 -0.2 0  -1.4 -0.2 0  -1.2 -0.2 0  -1 -0.2 0  -0.8 -0.2 0  -0.6000000000000001 -0.2 0  -0.3999999999999999 -0.2 0  -0.2 -0.2 0  0 -0.2 0  0.2000000000000002 -0.2 0  0.3999999999999999 -0.2 0  0.6000000000000001 -0.2 0  0.7999999999999998 -0.2 0  1 -0.2 0  1.2 -0.2 0  1.4 -0.2 0  1.6 -0.2 0  1.8 -0.2 0  2 -0.2 0  -2 0 0  -1.8 0 0  -1.6 0 0  -1.4 0 0  -1.2 0 0  -1 0 0  -0.8 0 0  -0.6000000000000001 0 0  -0.3999999999999999 0 0  -0.2 0 0  0 0 0  0.2000000000000002 0 0  0.3999999999999999 0 0  0.6000000000000001 0 0  0.7999999999999998 0 0  1 0 0  1.2 0 0  1.4 0 0  1.6 0 0  1.8 0 0  2 0 0  -2 0.2000000000000002 0  -1.8 0.2000000000000002 0  -1.6 0.2000000000000002 0  -1.4 0.2000000000000002 0  -1.2 0.2000000000000002 0  -1 0.2000000000000002 0  -0.8 0.2000000000000002 0  -0.6000000000000001 0.2000000000000002 0  -0.3999999999999999 0.2000000000000002 0  -0.2 0.2000000000000002 0  0 0.2000000000000002 0  0.2000000000000002 0.2000000000000002 0  0.3999999999999999 0.2000000000000002 0  0.6000000000000001 0.2000000000000002 0  0.7999999999999998 0.2000000000000002 0  1 0.2000000000000002 0  1.2 0.2000000000000002 0  1.4 0.2000000000000002 0  1.6 0.2000000000000002 0  1.8 0.2000000000000002 0  2 0.2000000000000002 0  -2 0.3999999999999999 0  -1.8 0.3999999999999999 0  -1.6 0.3999999999999999 0  -1.4 0.3999999999999999 0  -1.2 0.3999999999999999 0  -1 0.3999999999999999 0  -0.8 0.3999999999999999 0  -0.6000000000000001 0.3999999999999999 0  -0.3999999999999999 0.3999999999999999 0  -0.2 0.3999999999999999 0  0 0.3999999999999999 0  0.2000000000000002 0.3999999999999999 0  0.3999999999999999 0.3999999999999999 0  0.6000000000000001 0.3999999999999999 0  0.7999999999999998 0.3999999999999999 0  1 0.3999999999999999 0  1.2 0.3999999999999999 0  1.4 0.3999999999999999 0  1.6 0.3999999999999999 0  1.8 0.3999999999999999 0  2 0.3999999999999999 0  -2 0.6000000000000001 0  -1.8 0.6000000000000001 0  -1.6 0.6000000000000001 0  -1.4 0.6000000000000001 0  -1.2 0.6000000000000001 0  -1 0.6000000000000001 0  -0.8 0.6000000000000001 0  -0.6000000000000001 0.6000000000000001 0  -0.3999999999999999 0.6000000000000001 0  -0.2 0.6000000000000001 0  0 0.6000000000000001 0  0.2000000000000002 0.6000000000000001 0  0.3999999999999999 0.6000000000000001 0  0.6000000000000001 0.6000000000000001 0  0.7999999999999998 0.6000000000000001 0  1 0.6000000000000001 0  1.2 0.6000000000000001 0  1.4 0.6000000000000001 0  1.6 0.6000000000000001 0  1.8 0.6000000000000001 0  2 0.6000000000000001 0  -2 0.7999999999999998 0  -1.8 0.7999999999999998 0  -1.6 0.7999999999999998 0  -1.4 0.7999999999999998 0  -1.2 0.7999999999999998 0  -1 0.7999999999999998 0  -0.8 0.7999999999999998 0  -0.6000000000000001 0.7999999999999998 0  -0.3999999999999999 0.7999999999999998 0  -0.2 0.7999999999999998 0  0 0.7999999999999998 0  0.2000000000000002 0.7999999999999998 0  0.3999999999999999 0.7999999999999998 0  0.6000000000000001 0.7999999999999998 0  0.7999999999999998 0.7999999999999998 0  1 0.7999999999999998 0  1.2 0.7999999999999998 0  1.4 0.7999999999999998 0  1.6 0.7999999999999998 0  1.8 0.7999999999999998 0  2 0.7999999999999998 0  -2 1 0  -1.8 1 0  -1.6 1 0  -1.4 1 0  -1.2 1 0  -1 1 0  -0.8 1 0  -0.6000000000000001 1 0  -0.3999999999999999 1 0  -0.2 1 0  0 1 0  0.2000000000000002 1 0  0.3999999999999999 1 0  0.6000000000000001 1 0  0.7999999999999998 1 0  1 1 0  1.2 1 0  1.4 1 0  1.6 1 0  1.8 1 0  2 1 0  -2 1.2 0  -1.8 1.2 0  -1.6 1.2 0  -1.4 1.2 0  -1.2 1.2 0  -1 1.2 0  -0.8 1.2 0  -0.6000000000000001 1.2 0  -0.3999999999999999 1.2 0  -0.2 1.2 0  0 1.2 0  0.2000000000000002 1.2 0  0.3999999999999999 1.2 0  0.6000000000000001 1.2 0  0.7999999999999998 1.2 0  1 1.2 0  1.2 1.2 0  1.4 1.2 0  1.6 1.2 0  1.8 1.2 0  2 1.2 0  -2 1.4 0  -1.8 1.4 0  -1.6 1.4 0  -1.4 1.4 0  -1.2 1.4 0  -1 1.4 0  -0.8 1.4 0  -0.6000000000000001 1.4 0  -0.3999999999999999 1.4 0  -0.2 1.4 0  0 1.4 0  0.2000000000000002 1.4 0  0.3999999999999999 1.4 0  0.6000000000000001 1.4 0  0.7999999999999998 1.4 0  1 1.4 0  1.2 1.4 0  1.4 1.4 0  1.6 1.4 0  1.8 1.4 0  2 1.4 0  -2 1.6 0  -1.8 1.6 0  -1.6 1.6 0  -1.4 1.6 0  -1.2 1.6 0  -1 1.6 0  -0.8 1.6 0  -0.6000000000000001 1.6 0  -0.3999999999999999 1.6 0  -0.2 1.6 0  0 1.6 0  0.2000000000000002 1.6 0  0.3999999999999999 1.6 0  0.6000000000000001 1.6 0  0.7999999999999998 1.6 0  1 1.6 0  1.2 1.6 0  1.4 1.6 0  1.6 1.6 0  1.8 1.6 0  2 1.6 0  -2 1.8 0  -1.8 1.8 0  -1.6 1.8 0  -1.4 1.8 0  -1.2 1.8 0  -1 1.8 0  -0.8 1.8 0  -0.6000000000000001 1.8 0  -0.3999999999999999 1.8 0  -0.2 1.8 0  0 1.8 0  0.2000000000000002 1.8 0  0.3999999999999999 1.8 0  0.6000000000000001 1.8 0  0.7999999999999998 1.8 0  1 1.8 0  1.2 1.8 0  1.4 1.8 0  1.6 1.8 0  1.8 1.8 0  2 1.8 0  -2 2 0  -1.8 2 0  -1.6 2 0  -1.4 2 0  -1.2 2 0  -1 2 0  -0.8 2 0  -0.6000000000000001 2 0  -0.3999999999999999 2 0  -0.2 2 0  0 2 0  0.2000000000000002 2 0  0.3999999999999999 2 0  0.6000000000000001 2 0  0.7999999999999998 2 0  1 2 0  1.2 2 0  1.4 2 0  1.6 2 0  1.8 2 0  2 2 0  </DataArray>
</Points>
<Cells>
[...]
<PointData  Scalars="f_8"> 
<DataArray  type="Float64"  Name="f_8"  format="ascii">3.1713997391719491e-02  3.1726767382258110e-02  3.1732141074649604e-02  3.1734989104621011e-02  3.1736750836615084e-02  3.1737950696539612e-02  3.1738824325195286e-02  3.1739497409448841e-02  3.1740046199851643e-02  3.1740522134500397e-02  3.1740963917700447e-02  3.1741404751231488e-02  3.1741877813924679e-02  3.1742421731757363e-02  3.1743087773684765e-02  3.1743951840505567e-02  3.1745138863837584e-02  3.1746882754043193e-02  3.1749703931554983e-02  3.1755034241388078e-02  3.1767749091949377e-02  3.1806381070554585e-02  3.1809348715641637e-02  3.1812246178219039e-02  3.1814347034449415e-02  3.1815826932531793e-02  3.1816894055343707e-02  3.1817692807481673e-02  3.1818317521872697e-02  3.1818831441490267e-02  3.1819279493365368e-02  3.1819696415039178e-02  3.1820112368233171e-02  3.1820557490778230e-02  3.1821066442737508e-02  3.1821684001738841e-02  3.1822473159344916e-02  3.1823527876433312e-02  3.1824992188838407e-02  3.1827074699391236e-02  3.1829955067174689e-02  3.1832917931243321e-02  3.2045874284389791e-02  3.2046226432496674e-02  3.2047349156775470e-02  3.2048490208930872e-02  3.2049447946774626e-02  3.2050211597517940e-02  3.2050819177285889e-02  3.2051313271589207e-02  3.2051730282312500e-02  3.2052099730546332e-02  3.2052446191478706e-02  3.2052791745748106e-02  3.2053158465834550e-02  3.2053570906120543e-02  3.2054058570021443e-02  3.2054657892157203e-02  3.2055411671769403e-02  3.2056358648335385e-02  3.2057489976505385e-02  3.2058608077253276e-02  3.2058966346643764e-02  3.2428390671081268e-02  3.2427816888683771e-02  3.2427915500005601e-02  3.2428284892579796e-02  3.2428714570834703e-02  3.2429120275969260e-02  3.2429478727687693e-02  3.2429791499811539e-02  3.2430068591968161e-02  3.2430321903155368e-02  3.2430563145377983e-02  3.2430803611162559e-02  3.2431054605652238e-02  3.2431327888727442e-02  3.2431635477180053e-02  3.2431987632496086e-02  3.2432386473639732e-02  3.2432809774950590e-02  3.2433175102365604e-02  3.2433274538362158e-02  3.2432708844888726e-02  3.2943185176788015e-02  3.2942152426309226e-02  3.2941640097228948e-02  3.2941449686216699e-02  3.2941431262071441e-02  3.2941495248910366e-02  3.2941594701081073e-02  3.2941707310379348e-02  3.2941823512027790e-02  3.2941939812568675e-02  3.2942055373058041e-02  3.2942170327930578e-02  3.2942284839605214e-02  3.2942398164123372e-02  3.2942507004853960e-02  3.2942602158179637e-02  3.2942661931066465e-02  3.2942640340719302e-02  3.2942449136427542e-02  3.2941939836629158e-02  3.2940914875563963e-02  3.3575657983242461e-02  3.3574335971730936e-02  3.3573431659127573e-02  3.3572842919532747e-02  3.3572471182754110e-02  3.3572241432987898e-02  3.3572102548773596e-02  3.3572021207610735e-02  3.3571975590869177e-02  3.3571950677264074e-02  3.3571935108468308e-02  3.3571919117201053e-02  3.3571892969701950e-02  3.3571845416962912e-02  3.3571761648486347e-02  3.3571620197075790e-02  3.3571388273477221e-02  3.3571015485433300e-02  3.3570427674949117e-02  3.3569527046166003e-02  3.3568211818945586e-02  3.4308367914425063e-02  3.4306845658174739e-02  3.4305678342805235e-02  3.4304808688177507e-02  3.4304171105949910e-02  3.4303706383303628e-02  3.4303366637377757e-02  3.4303114855422416e-02  3.4302922468834741e-02  3.4302766702669296e-02  3.4302628297365211e-02  3.4302489644812965e-02  3.4302333166540327e-02  3.4302139697635403e-02  3.4301886638447049e-02  3.4301545696185348e-02  3.4301080246353408e-02  3.4300442889783393e-02  3.4299574920388279e-02  3.4298411138402894e-02  3.4296894361692580e-02  3.5121665222718500e-02  3.5120007130195703e-02  3.5118665547394630e-02  3.5117604650047228e-02  3.5116778268437170e-02  3.5116139250713038e-02  3.5115644551035642e-02  3.5115256891418409e-02  3.5114944462312413e-02  3.5114679759969861e-02  3.5114438159563069e-02  3.5114196469025964e-02  3.5113931515173551e-02  3.5113618733223169e-02  3.5113230729309719e-02  3.5112735862622910e-02  3.5112097083247071e-02  3.5111271612543057e-02  3.5110212553469265e-02  3.5108873897998667e-02  3.5107219809007169e-02  3.5994253965976365e-02  3.5992516026132806e-02  3.5991070552244202e-02  3.5989892237031813e-02  3.5988945818834099e-02  3.5988192103342385e-02  3.5987592219025775e-02  3.5987109867868419e-02  3.5986712030159060e-02  3.5986368694684995e-02  3.5986052057382804e-02  3.5985735467266168e-02  3.5985392277371450e-02  3.5984994697795890e-02  3.5984512746902945e-02  3.5983913455376153e-02  3.5983160596908086e-02  3.5982215382585087e-02  3.5981038686370738e-02  3.5979595263658348e-02  3.5977859739123680e-02  3.6903751850568531e-02  3.6901986648294756e-02  3.6900498864725600e-02  3.6899268132807195e-02  3.6898264791308387e-02  3.6897454202555843e-02  3.6896800323922965e-02  3.6896268026906806e-02  3.6895824203233750e-02  3.6895437937636895e-02  3.6895080062337014e-02  3.6894722355744022e-02  3.6894336583557667e-02  3.6893893541387973e-02  3.6893362257708257e-02  3.6892709554377033e-02  3.6891900225672306e-02  3.6890898148857591e-02  3.6889668604073285e-02  3.6888181842381816e-02  3.6886417397539235e-02  3.7827257237622966e-02  3.7825515411800188e-02  3.7824042356381316e-02  3.7822819285087732e-02  3.7821818478812212e-02  3.7821007080137005e-02  3.7820350408943687e-02  3.7819814253331030e-02  3.7819366065422001e-02  3.7818975251725180e-02  3.7818612827026130e-02  3.7818250683716657e-02  3.7817860684551681e-02  3.7817413756547270e-02  3.7816879164146833e-02  3.7816224170855152e-02  3.7815414343010091e-02  3.7814414766121504e-02  3.7813192362687903e-02  3.7811719235496907e-02  3.7809976479290200e-02  3.8741917262106823e-02  3.8740247740394633e-02  3.8738843951434301e-02  3.8737685968241696e-02  3.8736744892679094e-02  3.8735987126979649e-02  3.8735377899500545e-02  3.8734883542849367e-02  3.8734472561135956e-02  3.8734115762386709e-02  3.8733785769010910e-02  3.8733456168380649e-02  3.8733100502588005e-02  3.8732691258577812e-02  3.8732199020943860e-02  3.8731591989802062e-02  3.8730836131300482e-02  3.8729896279884303e-02  3.8728738470949167e-02  3.8727333531709214e-02  3.8725661401198055e-02  3.9625486067534084e-02  3.9623935983886020e-02  3.9622654891338510e-02  3.9621618497667252e-02  3.9620793215542856e-02  3.9620142035665232e-02  3.9619628672353129e-02  3.9619219738609143e-02  3.9618885388557207e-02  3.9618598982298116e-02  3.9618336208673645e-02  3.9618073943753752e-02  3.9617789005637616e-02  3.9617456908017455e-02  3.9617050716497230e-02  3.9616540173363801e-02  3.9615891378256066e-02  3.9615067474003146e-02  3.9614030904980883e-02  3.9612747680869469e-02  3.9611193356822692e-02  4.0456860363737371e-02  4.0455475240517694e-02  4.0454371015212022e-02  4.0453513848935786e-02  4.0452860541701621e-02  4.0452367510524577e-02  4.0451995686888988e-02  4.0451712105418154e-02  4.0451489564607784e-02  4.0451305410351593e-02  4.0451140025547817e-02  4.0450975272285340e-02  4.0450792947020170e-02  4.0450573231937938e-02  4.0450293127096977e-02  4.0449924929129556e-02  4.0449435015663282e-02  4.0448783542636320e-02  4.0447926138551020e-02  4.0446818996375110e-02  4.0445428079934287e-02  4.1216578721743391e-02  4.1215403733333149e-02  4.1214534987709606e-02  4.1213919190624629e-02  4.1213495842491094e-02  4.1213211084982972e-02  4.1213022457222921e-02  4.1212898502499505e-02  4.1212816432622486e-02  4.1212759498865749e-02  4.1212714654266264e-02  4.1212670567561796e-02  4.1212615841487173e-02  4.1212537224277139e-02  4.1212417603390054e-02  4.1212233636430347e-02  4.1211953090133514e-02  4.1211532503479253e-02  4.1210916890679176e-02  4.1210044782681469e-02  4.1208862549476227e-02  4.1887270166587595e-02  4.1886354491100626e-02  4.1885792465910593e-02  4.1885490602303316e-02  4.1885359126659014e-02  4.1885330644524002e-02  4.1885360737754090e-02  4.1885422453411224e-02  4.1885500429596663e-02  4.1885586365011697e-02  4.1885675868404956e-02  4.1885766249201976e-02  4.1885854759267788e-02  4.1885936826005117e-02  4.1886003814706890e-02  4.1886039824486208e-02  4.1886017076436334e-02  4.1885889951115168e-02  4.1885589475865695e-02  4.1885024240303478e-02  4.1884099984416487e-02  4.2454034875017428e-02  4.2453445547045540e-02  4.2453292581618736e-02  4.2453397451235567e-02  4.2453625241505380e-02  4.2453896254180688e-02  4.2454170633035096e-02  4.2454432255265594e-02  4.2454677831626750e-02  4.2454910585378154e-02  4.2455136818209942e-02  4.2455364024204217e-02  4.2455599656242959e-02  4.2455849885113410e-02  4.2456117686737349e-02  4.2456399345989777e-02  4.2456678009204531e-02  4.2456912563430690e-02  4.2457021256762782e-02  4.2456866372213430e-02  4.2456267292214286e-02  4.2904728833431161e-02  4.2904597981850090e-02  4.2905028868280362e-02  4.2905666547453564e-02  4.2906323419600434e-02  4.2906924824941489e-02  4.2907452266048196e-02  4.2907911372101329e-02  4.2908316954692459e-02  4.2908686764901484e-02  4.2909039196372095e-02  4.2909392653533406e-02  4.2909765518960918e-02  4.2910176119102958e-02  4.2910642082860287e-02  4.2911178007847224e-02  4.2911789101932170e-02  4.2912455926214545e-02  4.2913101654640316e-02  4.2913534263482177e-02  4.2913392987706009e-02  4.3230079431901845e-02  4.3230784190723966e-02  4.3232131425870936e-02  4.3233465079622987e-02  4.3234604239272008e-02  4.3235537313896615e-02  4.3236298951158630e-02  4.3236930729872620e-02  4.3237470946772737e-02  4.3237953329931071e-02  4.3238408182202502e-02  4.3238864055808887e-02  4.3239349495053467e-02  4.3239894784780873e-02  4.3240533641914838e-02  4.3241304382592334e-02  4.3242248637137569e-02  4.3243400981215090e-02  4.3244748797247483e-02  4.3246106193763338e-02  4.3246802341762342e-02  4.3423365676725563e-02  4.3426288283746901e-02  4.3429155564205207e-02  4.3431321899386595e-02  4.3432921250188987e-02  4.3434126501611325e-02  4.3435062594784274e-02  4.3435815410771822e-02  4.3436446508199972e-02  4.3437003195761853e-02  4.3437524914431244e-02  4.3438047595822871e-02  4.3438607165441102e-02  4.3439243054642293e-02  4.3440002589060556e-02  4.3440947437722921e-02  4.3442163829459160e-02  4.3443777589322483e-02  4.3445963416230485e-02  4.3448856234104064e-02  4.3451785287261679e-02  4.3478514501525137e-02  4.3489520264673662e-02  4.3494454210917327e-02  4.3497254277875805e-02  4.3499097585252007e-02  4.3500420317745786e-02  4.3501424073674765e-02  4.3502221344127415e-02  4.3502884864751817e-02  4.3503467629038034e-02  4.3504012602784796e-02  4.3504558450085433e-02  4.3505143821148951e-02  4.3505811645609696e-02  4.3506614875865574e-02  4.3507626233993485e-02  4.3508958284206353e-02  4.3510812943945154e-02  4.3513627779867052e-02  4.3518587945745993e-02  4.3529685269201604e-02  </DataArray> 
</PointData> 
</Piece>
</UnstructuredGrid>
</VTKFile>