<?xml version="1.0"?>
<VTKFile type="UnstructuredGrid"  version="0.1"  >
<UnstructuredGrid>
<Piece  NumberOfPoints="441" NumberOfCells="800">
<Points>
<DataArray  type="Float64"  NumberOfComponents="3"  format="ascii">-2 -2 0  -1.8 -2 0  -1.6 -2 0  -1.4 -2 0  -1.2 -2 0  -1 -2 0  -0.8 -2 0  -0.6000000000000001 -2 0  -0.3999999999999999 -2 0  -0.2 -2 0  0 -2 0  0.2000000000000002 -2 0  0.3999999999999999 -2 0  0.6000000000000001 -2 0  0.7999999999999998 -2 0  1 -2 0  1.2 -2 0  1.4 -2 0  1.6 -2 0  1.8 -2 0  2 -2 0  -2 -1.8 0  -1.8 -1.8 0  -1.6 -1.8 0  -1.4 -1.8 0  -1.2 -1.8 0  -1 -1.8 0  -0.8 -1.8 0  -0.6000000000000001 -1.8 0  -0.3999999999999999 -1.8 0  -0.2 -1.8 0  0 -1.8 0  0.2000000000000002 -1.8 0  0.3999999999999999 -1.8 0  0.6000000000000001 -1.8 0  0.7999999999999998 -1.8 0  1 -1.8 0  1.2 -1.8 0  1.4 -1.8 0  1.6 -1.8 0  1.8 -1.8 0  2 -1.8 0  -2 -1.6 0  -1.8 -1.6 0  -1.6 -1.6 0  -1.4 -1.6 0  -1.2 -1.6 0  -1 -1.6 0  -0.8 -1.6 0  -0.6000000000000001 -1.6 0  -0.3999999999999999 -1.6 0  -0.2 -1.6 0  0 -1.6 0  0.2000000000000002 -1.6 0  0.3999999999999999 -1.6 0  0.6000000000000001 -1.6 0  0.7999999999999998 -1.6 0  1 -1.6 0  1.2 -1.6 0  1.4 -1.6 0  1.6 -1.6 0  1.8 -1.6 0  2 -1.6 0  -2 -1.4 0  -1.8 -1.4 0  -1.6 -1.4 0  -1.4 -1.4 0  -1.2 -1.4 0  -1 -1.4 0  -0.8 -1.4 0  -0.6000000000000001 -1.4 0  -0.3999999999999999 -1.4 0  -0.2 -1.4 0  0 -1.4 0  0.2000000000000002 -1.4 0  0.3999999999999999 -1.4 0  0.6000000000000001 -1.4 0  0.7999999999999998 -1.4 0  1 -1.4 0  1.2 -1.4 0  1.4 -1.4 0  1.6 -1.4 0  1.8 -1.4 0  2 -1.4 0  -2 -1.2 0  -1.8 -1.2 0  -1.6 -1.2 0  -1.4 -1.2 0  -1.2 -1.2 0  -1 -1.2 0  -0.8 -1.2 0  -0.6000000000000001 -1.2 0  -0.3999999999999999 -1.2 0  -0.2 -1.2 0  0 -1.2 0  0.2000000000000002 -1.2 0  0.3999999999999999 -1.2 0  0.6000000000000001 -1.2 0  0.7999999999999998 -1.2 0  1 -1.2 0  1.2 -1.2 0  1.4 -1.2 0  1.6 -1.2 0  1.8 -1.2 0  2 -1.2 0  -2 -1 0  -1.8 -1 0  -1.6 -1 0  -1.4 -1 0  -1.2 -1 0  -1 -1 0  -0.8 -1 0  -0.6000000000000001 -1 0  -0.3999999999999999 -1 0  -0.2 -1 0  0 -1 0  0.2000000000000002 -1 0  0.3999999999999999 -1 0  0.6000000000000001 -1 0  0.7999999999999998 -1 0  1 -1 0  1.2 -1 0  1.4 -1 0  1.6 -1 0  1.8 -1 0  2 -1 0  -2 -0.8 0  -1.8 -0.8 0  -1.6 -0.8 0  -1.4 -0.8 0  -1.2 -0.8 0  -1 -0.8 0  -0.8 -0.8 0  -0.6000000000000001 -0.8 0  -0.3999999999999999 -0.8 0  -0.2 -0.8 0  0 -0.8 0  0.2000000000000002 -0.8 0  0.3999999999999999 -0.8 0  0.6000000000000001 -0.8 0  0.7999999999999998 -0.8 0  1 -0.8 0  1.2 -0.8 0  1.4 -0.8 0  1.6 -0.8 0  1.8 -0.8 0  2 -0.8 0  -2 -0.6000000000000001 0  -1.8 -0.6000000000000001 0  -1.6 -0.6000000000000001 0  -1.4 -0.6000000000000001 0  -1.2 -0.6000000000000001 0  -1 -0.6000000000000001 0  -0.8 -0.6000000000000001 0  -0.6000000000000001 -0.6000000000000001 0  -0.3999999999999999 -0.6000000000000001 0  -0.2 -0.6000000000000001 0  0 -0.6000000000000001 0  0.2000000000000002 -0.6000000000000001 0  0.3999999999999999 -0.6000000000000001 0  0.6000000000000001 -0.6000000000000001 0  0.7999999999999998 -0.6000000000000001 0  1 -0.6000000000000001 0  1.2 -0.6000000000000001 0  1.4 -0.6000000000000001 0  1.6 -0.6000000000000001 0  1.8 -0.6000000000000001 0  2 -0.6000000000000001 0  -2 -0.3999999999999999 0  -1.8 -0.3999999999999999 0  -1.6 -0.3999999999999999 0  -1.4 -0.3999999999999999 0  -1.2 -0.3999999999999999 0  -1 -0.3999999999999999 0  -0.8 -0.3999999999999999 0  -0.6000000000000001 -0.3999999999999999 0  -0.3999999999999999 -0.3999999999999999 0  -0.2 -0.3999999999999999 0  0 -0.3999999999999999 0  0.2000000000000002 -0.3999999999999999 0  0.3999999999999999 -0.3999999999999999 0  0.6000000000000001 -0.3999999999999999 0  0.7999999999999998 -0.3999999999999999 0  1 -0.3999999999999999 0  1.2 -0.3999999999999999 0  1.4 -0.3999999999999999 0  1.6 -0.3999999999999999 0  1.8 -0.3999999999999999 0  2 -0.3999999999999999 0  -2 -0.2 0  -1.8 -0.2 0  -1.6 -0.2 0  -1.4 -0.2 0  -1.2 -0.2 0  -1 -0.2 0  -0.8 -0.2 0  -0.6000000000000001 -0.2 0  -0.3999999999999999 -0.2 0  -0.2 -0.2 0  0 -0.2 0  0.2000000000000002 -0.2 0  0.3999999999999999 -0.2 0  0.6000000000000001 -0.2 0  0.7999999999999998 -0.2 0  1 -0.2 0  1.2 -0.2 0  1.4 -0.2 0  1.6 -0.2 0  1.8 -0.2 0  2 -0.2 0  -2 0 0  -1.8 0 0  -1.6 0 0  -1.4 0 0  -1.2 0 0  -1 0 0  -0.8 0 0  -0.6000000000000001 0 0  -0.3999999999999999 0 0  -0.2 0 0  0 0 0  0.2000000000000002 0 0  0.3999999999999999 0 0  0.6000000000000001 0 0  0.7999999999999998 0 0  1 0 0  1.2 0 0  1.4 0 0  1.6 0 0  1.8 0 0  2 0 0  -2 0.2000000000000002 0  -1.8 0.2000000000000002 0  -1.6 0.2000000000000002 0  -1.4 0.2000000000000002 0  -1.2 0.2000000000000002 0  -1 0.2000000000000002 0  -0.8 0.2000000000000002 0  -0.6000000000000001 0.2000000000000002 0  -0.3999999999999999 0.2000000000000002 0  -0.2 0.2000000000000002 0  0 0.2000000000000002 0  0.2000000000000002 0.2000000000000002 0  0.3999999999999999 0.2000000000000002 0  0.6000000000000001 0.2000000000000002 0  0.7999999999999998 0.2000000000000002 0  1 0.2000000000000002 0  1.2 0.2000000000000002 0  1.4 0.2000000000000002 0  1.6 0.2000000000000002 0  1.8 0.2000000000000002 0  2 0.2000000000000002 0  -2 0.3999999999999999 0  -1.8 0.3999999999999999 0  -1.6 0.3999999999999999 0  -1.4 0.3999999999999999 0  -1.2 0.3999999999999999 0  -1 0.3999999999999999 0  -0.8 0.3999999999999999 0  -0.6000000000000001 0.3999999999999999 0  -0.3999999999999999 0.3999999999999999 0  -0.2 0.3999999999999999 0  0 0.3999999999999999 0  0.2000000000000002 0.3999999999999999 0  0.3999999999999999 0.3999999999999999 0  0.6000000000000001 0.3999999999999999 0  0.7999999999999998 0.3999999999999999 0  1 0.3999999999999999 0  1.2 0.3999999999999999 0  1.4 0.3999999999999999 0  1.6 0.3999999999999999 0  1.8 0.3999999999999999 0  2 0.3999999999999999 0  -2 0.6000000000000001 0  -1.8 0.6000000000000001 0  -1.6 0.6000000000000001 0  -1.4 0.6000000000000001 0  -1.2 0.6000000000000001 0  -1 0.6000000000000001 0  -0.8 0.6000000000000001 0  -0.6000000000000001 0.6000000000000001 0  -0.3999999999999999 0.6000000000000001 0  -0.2 0.6000000000000001 0  0 0.6000000000000001 0  0.2000000000000002 0.6000000000000001 0  0.3999999999999999 0.6000000000000001 0  0.6000000000000001 0.6000000000000001 0  0.7999999999999998 0.6000000000000001 0  1 0.6000000000000001 0  1.2 0.6000000000000001 0  1.4 0.6000000000000001 0  1.6 0.6000000000000001 0  1.8 0.6000000000000001 0  2 0.6000000000000001 0  -2 0.7999999999999998 0  -1.8 0.7999999999999998 0  -1.6 0.7999999999999998 0  -1.4 0.7999999999999998 0  -1.2 0.7999999999999998 0  -1 0.7999999999999998 0  -0.8 0.7999999999999998 0  -0.6000000000000001 0.7999999999999998 0  -0.3999999999999999 0.7999999999999998 0  -0.2 0.7999999999999998 0  0 0.7999999999999998 0  0.2000000000000002 0.7999999999999998 0  0.3999999999999999 0.7999999999999998 0  0.6000000000000001 0.7999999999999998 0  0.7999999999999998 0.7999999999999998 0  1 0.7999999999999998 0  1.2 0.7999999999999998 0  1.4 0.7999999999999998 0  1.6 0.7999999999999998 0  1.8 0.7999999999999998 0  2 0.7999999999999998 0  -2 1 0  -1.8 1 0  -1.6 1 0  -1.4 1 0  -1.2 1 0  -1 1 0  -0.8 1 0  -0.6000000000000001 1 0  -0.3999999999999999 1 0  -0.2 1 0  0 1 0  0.2000000000000002 1 0  0.3999999999999999 1 0  0.6000000000000001 1 0  0.7999999999999998 1 0  1 1 0  1.2 1 0  1.4 1 0  1.6 1 0  1.8 1 0  2 1 0  -2 1.2 0  -1.8 1.2 0  -1.6 1.2 0  -1.4 1.2 0  -1.2 1.2 0  -1 1.2 0  -0.8 1.2 0  -0.6000000000000001 1.2 0  -0.3999999999999999 1.2 0  -0.2 1.2 0  0 1.2 0  0.2000000000000002 1.2 0  0.3999999999999999 1.2 0  0.6000000000000001 1.2 0  0.7999999999999998 1.2 0  1 1.2 0  1.2 1.2 0  1.4 1.2 0  1.6 1.2 0  1.8 1.2 0  2 1.2 0  -2 1.4 0  -1.8 1.4 0  -1.6 1.4 0  -1.4 1.4 0  -1.2 1.4 0  -1 1.4 0  -0.8 1.4 0  -0.6000000000000001 1.4 0  -0.3999999999999999 1.4 0  -0.2 1.4 0  0 1.4 0  0.2000000000000002 1.4 0  0.3999999999999999 1.4 0  0.6000000000000001 1.4 0  0.7999999999999998 1.4 0  1 1.4 0  1.2 1.4 0  1.4 1.4 0  1.6 1.4 0  1.8 1.4 0  2 1.4 0  -2 1.6 0  -1.8 1.6 0  -1.6 1.6 0  -1.4 1.6 0  -1.2 1.6 0  -1 1.6 0  -0.8 1.6 0  -0.6000000000000001 1.6 0  -0.3999999999999999 1.6 0  -0.2 1.6 0  0 1.6 0  0.2000000000000002 1.6 0  0.3999999999999999 1.6 0  0.6000000000000001 1.6 0  0.7999999999999998 1.6 0  1 1.6 0  1.2 1.6 0  1.4 1.6 0  1.6 1.6 0  1.8 1.6 0  2 1.6 0  -2 1.8 0  -1.8 1.8 0  -1.6 1.8 0  -1.4 1.8 0  -1.2 1.8 0  -1 1.8 0  -0.8 1.8 0  -0.6000000000000001 1.8 0  -0.3999999999999999 1.8 0  -0.2 1.8 0  0 1.8 0  0.2000000000000002 1.8 0  0.3999999999999999 1.8 0  0.6000000000000001 1.8 0  0.7999999999999998 1.8 0  1 1.8 0  1.2 1.8 0  1.4 1.8 0  1.6 1.8 0  1.8 1.8 0  2 1.8 0  -2 2 0  -1.8 2 0  -1.6 2 0  -1.4 2 0  -1.2 2 0  -1 2 0  -0.8 2 0  -0.6000000000000001 2 0  -0.3999999999999999 2 0  -0.2 2 0  0 2 0  0.2000000000000002 2 0  0.3999999999999999 2 0  0.6000000000000001 2 0  0.7999999999999998 2 0  1 2 0  1.2 2 0  1.4 2 0  1.6 2 0  1.8 2 0  2 2 0  </DataArray>
</Points>
<Cells>
[...]
<PointData  Scalars="f_8"> 
<DataArray  type="Float64"  Name="f_8"  format="ascii">2.7095945402382960e-02  2.7117570933930527e-02  2.7126743400054141e-02  2.7131690386346923e-02  2.7134839474787037e-02  2.7137071804492194e-02  2.7138780378917333e-02  2.7140172294242024e-02  2.7141371017977717e-02  2.7142458013380971e-02  2.7143493164478123e-02  2.7144527008656757e-02  2.7145610008574201e-02  2.7146801808761570e-02  2.7148183409998479e-02  2.7149877443293349e-02  2.7152089408743300e-02  2.7155208963683099e-02  2.7160109848283955e-02  2.7169205690058536e-02  2.7190728581473991e-02  2.7252087004651985e-02  2.7257155040792690e-02  2.7262146975786553e-02  2.7265832767242957e-02  2.7268505352243226e-02  2.7270512017645018e-02  2.7272091938509699e-02  2.7273399462683437e-02  2.7274536250944569e-02  2.7275572904265816e-02  2.7276562726152878e-02  2.7277551232545733e-02  2.7278583865050238e-02  2.7279713695427945e-02  2.7281010907490223e-02  2.7282576512716220e-02  2.7284563949552355e-02  2.7287211431790134e-02  2.7290866542283493e-02  2.7295828425206742e-02  2.7300884647911156e-02  2.7657054014134711e-02  2.7657717524486418e-02  2.7659718749658981e-02  2.7661785335647747e-02  2.7663574177335292e-02  2.7665063709458031e-02  2.7666314149994372e-02  2.7667393008295519e-02  2.7668357060030783e-02  2.7669251263541948e-02  2.7670112094799568e-02  2.7670971739299655e-02  2.7671862336641238e-02  2.7672820232507105e-02  2.7673890200602264e-02  2.7675128862289018e-02  2.7676603828046393e-02  2.7678376228206670e-02  2.7680427385596038e-02  2.7682420625224330e-02  2.7683092815055470e-02  2.8304439262290360e-02  2.8303549427402354e-02  2.8303825300764727e-02  2.8304587598871552e-02  2.8305479142326131e-02  2.8306355136855539e-02  2.8307173073662689e-02  2.8307931887562816e-02  2.8308644361056519e-02  2.8309326220102494e-02  2.8309992702383626e-02  2.8310658239363424e-02  2.8311337252899391e-02  2.8312044969984042e-02  2.8312797166680365e-02  2.8313606866361599e-02  2.8314473675603538e-02  2.8315356574902542e-02  2.8316113526159533e-02  2.8316391389060211e-02  2.8315514772314365e-02  2.9176805149656083e-02  2.9175143158585406e-02  2.9174385097323043e-02  2.9174195084041222e-02  2.9174318719361571e-02  2.9174602852158470e-02  2.9174965674887664e-02  2.9175366445814768e-02  2.9175785528132329e-02  2.9176213238476054e-02  2.9176644177238427e-02  2.9177074477163584e-02  2.9177500288073428e-02  2.9177916281556384e-02  2.9178312962236521e-02  2.9178671109610026e-02  2.9178950786089185e-02  2.9179071546278742e-02  2.9178882207160094e-02  2.9178130595336423e-02  2.9176482345506669e-02  3.0250328420585816e-02  3.0248171709314507e-02  3.0246741334542252e-02  3.0245864324258683e-02  3.0245373276999922e-02  3.0245140029802296e-02  3.0245076222108386e-02  3.0245123062257767e-02  3.0245240789028141e-02  3.0245400822789346e-02  3.0245580567104406e-02  3.0245759998031262e-02  3.0245919118598211e-02  3.0246035429773121e-02  3.0246080568178516e-02  3.0246015182269544e-02  3.0245781165285195e-02  3.0245291158793670e-02  3.0244418233941306e-02  3.0242996141807470e-02  3.0240852453371929e-02  3.1496397392778978e-02  3.1493887009501051e-02  3.1491993702514438e-02  3.1490620282163789e-02  3.1489655173331625e-02  3.1488997143394905e-02  3.1488563652125150e-02  3.1488290108834679e-02  3.1488125840400817e-02  3.1488029693071580e-02  3.1487966264952247e-02  3.1487902836466942e-02  3.1487806708821800e-02  3.1487642554382134e-02  3.1487369380201330e-02  3.1486936805226969e-02  3.1486280698235530e-02  3.1485319138852719e-02  3.1483951580870244e-02  3.1482066997498906e-02  3.1479568346633138e-02  3.2882560120973424e-02  3.2879796604364298e-02  3.2877582652227365e-02  3.2875857310384005e-02  3.2874541848174357e-02  3.2873555539475241e-02  3.2872824251144572e-02  3.2872283275500007e-02  3.2871876871842724e-02  3.2871556360465182e-02  3.2871277773262784e-02  3.2870999471718398e-02  3.2870679819862518e-02  3.2870274865746084e-02  3.2869735982329860e-02  3.2869007546948735e-02  3.2868025054913180e-02  3.2866714650427072e-02  3.2864995898923402e-02  3.2862790265430458e-02  3.2860036774962319e-02  3.4373361403216438e-02  3.4370433055785313e-02  3.4368011535657154e-02  3.4366053622745536e-02  3.4364499008045397e-02  3.4363280471575330e-02  3.4362331088959891e-02  3.4361588063782041e-02  3.4360993955639102e-02  3.4360496263766548e-02  3.4360046111608075e-02  3.4359596503032330e-02  3.4359100418476909e-02  3.4358508917873294e-02  3.4357769415403958e-02  3.4356824388831385e-02  3.4355610984836610e-02  3.4354062254181757e-02  3.4352110967220573e-02  3.4349696780577914e-02  3.4346776370288781e-02  3.5931195504160567e-02  3.5928187562206650e-02  3.5925659182311540e-02  3.5923575434348848e-02  3.5921885425688749e-02  3.5920529647814246e-02  3.5919446061404847e-02  3.5918574057776410e-02  3.5917856360060320e-02  3.5917239336579254e-02  3.5916672260964476e-02  3.5916105966167747e-02  3.5915491231434588e-02  3.5914777175471577e-02  3.5913909928351570e-02  3.5912831919069202e-02  3.5911482222106418e-02  3.5909798492133188e-02  3.5907720952894899e-02  3.5905198497949771e-02  3.5902196038737712e-02  3.7517200917052573e-02  3.7514198437371707e-02  3.7511659147456224e-02  3.7509550696502809e-02  3.7507825382211209e-02  3.7506426674647542e-02  3.7505294912695580e-02  3.7504371236024951e-02  3.7503599632919833e-02  3.7502927431328076e-02  3.7502304696695750e-02  3.7501682970709813e-02  3.7501013709487226e-02  3.7500246727585063e-02  3.7499328954719309e-02  3.7498203865157044e-02  3.7496812015645649e-02  3.7495093155722678e-02  3.7492990233002628e-02  3.7490455159481843e-02  3.7487455377217073e-02  3.9092193794487536e-02  3.9089282171807911e-02  3.9086826770775643e-02  3.9084793157134506e-02  3.9083131475592399e-02  3.9081783868384498e-02  3.9080690582246225e-02  3.9079793895931393e-02  3.9079039938678936e-02  3.9078378884826466e-02  3.9077764071594745e-02  3.9077150496675199e-02  3.9076493041342808e-02  3.9075744698235548e-02  3.9074855084620795e-02  3.9073769592006605e-02  3.9072429636978059e-02  3.9070774568911497e-02  3.9068745720855107e-02  3.9066292653680841e-02  3.9063380672872010e-02  4.0617624621618588e-02  4.0614889267896637e-02  4.0612613644001753e-02  4.0610755655638431e-02  4.0609257241293543e-02  4.0608054635113341e-02  4.0607085587613473e-02  4.0606293123835908e-02  4.0605626612812327e-02  4.0605041126347489e-02  4.0604495853431934e-02  4.0603952058066599e-02  4.0603370861183187e-02  4.0602711024501068e-02  4.0601926916652917e-02  4.0600966950551924e-02  4.0599772995462163e-02  4.0598281552260383e-02  4.0596427688282102e-02  4.0594152491906274e-02  4.0591413539366905e-02  4.2056535697019962e-02  4.2054061904004951e-02  4.2052065834043695e-02  4.2050488715052931e-02  4.2049255739983769e-02  4.2048291793724574e-02  4.2047530005995898e-02  4.2046914484407269e-02  4.2046399655090438e-02  4.2045948060751841e-02  4.2045527644652983e-02  4.2045108955751018e-02  4.2044662381540102e-02  4.2044155378332011e-02  4.2043549670978057e-02  4.2042798537435477e-02  4.2041844634734857e-02  4.2040619435397768e-02  4.2039046180169064e-02  4.2037048804425381e-02  4.2034568087044567e-02  4.3374491765773328e-02  4.3372366220388953e-02  4.3370759189739712e-02  4.3369577927816892e-02  4.3368717506258689e-02  4.3368085081498010e-02  4.3367608202295023e-02  4.3367234062796071e-02  4.3366925331263871e-02  4.3366655455902382e-02  4.3366404481139979e-02  4.3366155484340245e-02  4.3365891375740269e-02  4.3365591690579353e-02  4.3365229002478821e-02  4.3364764704336693e-02  4.3364144284685414e-02  4.3363293187307771e-02  4.3362116271945791e-02  4.3360506663407392e-02  4.3358370884880967e-02  4.4540451267845879e-02  4.4538768795716249e-02  4.4537683496032772e-02  4.4537032409647986e-02  4.4536659623613424e-02  4.4536448973732143e-02  4.4536325056289794e-02  4.4536243498667298e-02  4.4536180570464955e-02  4.4536125141528125e-02  4.4536073060215384e-02  4.4536023187257398e-02  4.4535974226438749e-02  4.4535921544183892e-02  4.4535853165870609e-02  4.4535744079609856e-02  4.4535548077653420e-02  4.4535187245807975e-02  4.4534542273522874e-02  4.4533454076805680e-02  4.4531758174436074e-02  4.5527538243152019e-02  4.5526425072956102e-02  4.5526048772459200e-02  4.5526097795585176e-02  4.5526337613044247e-02  4.5526631037287747e-02  4.5526911244499292e-02  4.5527153461313287e-02  4.5527355754027762e-02  4.5527527837434037e-02  4.5527684949303787e-02  4.5527844447144167e-02  4.5528023556216060e-02  4.5528237108940675e-02  4.5528494107003936e-02  4.5528791506247834e-02  4.5529102829141486e-02  4.5529358598331522e-02  4.5529417590477204e-02  4.5529040007875755e-02  4.5527910463603161e-02  4.6313654222450817e-02  4.6313349602214629e-02  4.6313995456451033e-02  4.6314971994320255e-02  4.6315953084274074e-02  4.6316811033553451e-02  4.6317517105747039e-02  4.6318085299432987e-02  4.6318546043244507e-02  4.6318935138249757e-02  4.6319289626462583e-02  4.6319646589861152e-02  4.6320043008698297e-02  4.6320515621361469e-02  4.6321099719300096e-02  4.6321824970938646e-02  4.6322704186713325e-02  4.6323706494870880e-02  4.6324699921824447e-02  4.6325350168590462e-02  4.6325027078288741e-02  4.6881790623938387e-02  4.6882960383004123e-02  4.6885215383147515e-02  4.6887409968631444e-02  4.6889230603646907e-02  4.6890660794592302e-02  4.6891765569318469e-02  4.6892622525445495e-02  4.6893303813397687e-02  4.6893873767491698e-02  4.6894390811205153e-02  4.6894910307701508e-02  4.6895487539786569e-02  4.6896180704571702e-02  4.6897053807186159e-02  4.6898178628538054e-02  4.6899632385259578e-02  4.6901479467944401e-02  4.6903701060433116e-02  4.6905974412871684e-02  4.6907127774611909e-02  4.7219565282910068e-02  4.7224629402532560e-02  4.7229551343900167e-02  4.7233205461641427e-02  4.7235830218341893e-02  4.7237732741123188e-02  4.7239136718516220e-02  4.7240197810592958e-02  4.7241029328009894e-02  4.7241719768756248e-02  4.7242343912194673e-02  4.7242970382602480e-02  4.7243667724270723e-02  4.7244510496478404e-02  4.7245586903040510e-02  4.7247010024070585e-02  4.7248935629674506e-02  4.7251588406600216e-02  4.7255278072461097e-02  4.7260244139836004e-02  4.7265316192692822e-02  4.7315967401642726e-02  4.7335176805184995e-02  4.7343717995243638e-02  4.7348482569769618e-02  4.7351534313536364e-02  4.7353641409796594e-02  4.7355161967883905e-02  4.7356298429549838e-02  4.7357183837506922e-02  4.7357916784115342e-02  4.7358578347656853e-02  4.7359242056755263e-02  4.7359981344463502e-02  4.7360877016302920e-02  4.7362027257345819e-02  4.7363564642908314e-02  4.7365691207483629e-02  4.7368764990888886e-02  4.7373555798707653e-02  4.7382140137370472e-02  4.7401500352471954e-02  </DataArray> 
</PointData> 
</Piece>
</UnstructuredGrid>
</VTKFile>