<?xml version="1.0"?>
<VTKFile type="UnstructuredGrid"  version="0.1"  >
<UnstructuredGrid>
<Piece  NumberOfPoints="441" NumberOfCells="800">
<Points>
<DataArray  type="Float64"  NumberOfComponents="3"  format="ascii">-2 -2 0  -1.8 -2 0  -1.6 -2 0  -1.4 -2 0  -1.2 -2 0  -1 -2 0  -0.8 -2 0  -0.6000000000000001 -2 0  -0.3999999999999999 -2 0  -0.2 -2 0  0 -2 0  0.2000000000000002 -2 0  0.3999999999999999 -2 0  0.6000000000000001 -2 0  0.7999999999999998 -2 0  1 -2 0  1.2 -2 0  1.4 -2 0  1.6 -2 0  1.8 -2 0  2 -2 0  -2 -1.8 0  -1.8 -1.8 0  -1.6 -1.8 0  -1.4 -1.8 0  -1.2 -1.8 0  -1 -1.8 0  -0.8 -1.8 0  -0.6000000000000001 -1.8 0  -0.3999999999999999 -1.8 0  -0.2 -1.8 0  0 -1.8 0  0.2000000000000002 -1.8 0  0.3999999999999999 -1.8 0  0.6000000000000001 -1.8 0  0.7999999999999998 -1.8 0  1 -1.8 0  1.2 -1.8 0  1.4 -1.8 0  1.6 -1.8 0  1.8 -1.8 0  2 -1.8 0  -2 -1.6 0  -1.8 -1.6 0  -1.6 -1.6 0  -1.4 -1.6 0  -1.2 -1.6 0  -1 -1.6 0  -0.8 -1.6 0  -0.6000000000000001 -1.6 0  -0.3999999999999999 -1.6 0  -0.2 -1.6 0  0 -1.6 0  0.2000000000000002 -1.6 0  0.3999999999999999 -1.6 0  0.6000000000000001 -1.6 0  0.7999999999999998 -1.6 0  1 -1.6 0  1.2 -1.6 0  1.4 -1.6 0  1.6 -1.6 0  1.8 -1.6 0  2 -1.6 0  -2 -1.4 0  -1.8 -1.4 0  -1.6 -1.4 0  -1.4 -1.4 0  -1.2 -1.4 0  -1 -1.4 0  -0.8 -1.4 0  -0.6000000000000001 -1.4 0  -0.3999999999999999 -1.4 0  -0.2 -1.4 0  0 -1.4 0  0.2000000000000002 -1.4 0  0.3999999999999999 -1.4 0  0.6000000000000001 -1.4 0  0.7999999999999998 -1.4 0  1 -1.4 0  1.2 -1.4 0  1.4 -1.4 0  1.6 -1.4 0  1.8 -1.4 0  2 -1.4 0  -2 -1.2 0  -1.8 -1.2 0  -1.6 -1.2 0  -1.4 -1.2 0  -1.2 -1.2 0  -1 -1.2 0  -0.8 -1.2 0  -0.6000000000000001 -1.2 0  -0.3999999999999999 -1.2 0  -0.2 -1.2 0  0 -1.2 0  0.2000000000000002 -1.2 0  0.3999999999999999 -1.2 0  0.6000000000000001 -1.2 0  0.7999999999999998 -1.2 0  1 -1.2 0  1.2 -1.2 0  1.4 -1.2 0  1.6 -1.2 0  1.8 -1.2 0  2 -1.2 0  -2 -1 0  -1.8 -1 0  -1.6 -1 0  -1.4 -1 0  -1.2 -1 0  -1 -1 0  -0.8 -1 0  -0.6000000000000001 -1 0  -0.3999999999999999 -1 0  -0.2 -1 0  0 -1 0  0.2000000000000002 -1 0  0.3999999999999999 -1 0  0.6000000000000001 -1 0  0.7999999999999998 -1 0  1 -1 0  1.2 -1 0  1.4 -1 0  1.6 -1 0  1.8 -1 0  2 -1 0  -2 -0.8 0  -1.8 -0.8 0  -1.6 -0.8 0  -1.4 -0.8 0  -1.2 -0.8 0  -1 -0.8 0  -0.8 -0.8 0  -0.6000000000000001 -0.8 0  -0.3999999999999999 -0.8 0  -0.2 -0.8 0  0 -0.8 0  0.2000000000000002 -0.8 0  0.3999999999999999 -0.8 0  0.6000000000000001 -0.8 0  0.7999999999999998 -0.8 0  1 -0.8 0  1.2 -0.8 0  1.4 -0.8 0  1.6 -0.8 0  1.8 -0.8 0  2 -0.8 0  -2 -0.6000000000000001 0  -1.8 -0.6000000000000001 0  -1.6 -0.6000000000000001 0  -1.4 -0.6000000000000001 0  -1.2 -0.6000000000000001 0  -1 -0.6000000000000001 0  -0.8 -0.6000000000000001 0  -0.6000000000000001 -0.6000000000000001 0  -0.3999999999999999 -0.6000000000000001 0  -0.2 -0.6000000000000001 0  0 -0.6000000000000001 0  0.2000000000000002 -0.6000000000000001 0  0.3999999999999999 -0.6000000000000001 0  0.6000000000000001 -0.6000000000000001 0  0.7999999999999998 -0.6000000000000001 0  1 -0.6000000000000001 0  1.2 -0.6000000000000001 0  1.4 -0.6000000000000001 0  1.6 -0.6000000000000001 0  1.8 -0.6000000000000001 0  2 -0.6000000000000001 0  -2 -0.3999999999999999 0  -1.8 -0.3999999999999999 0  -1.6 -0.3999999999999999 0  -1.4 -0.3999999999999999 0  -1.2 -0.3999999999999999 0  -1 -0.3999999999999999 0  -0.8 -0.3999999999999999 0  -0.6000000000000001 -0.3999999999999999 0  -0.3999999999999999 -0.3999999999999999 0  -0.2 -0.3999999999999999 0  0 -0.3999999999999999 0  0.2000000000000002 -0.3999999999999999 0  0.3999999999999999 -0.3999999999999999 0  0.6000000000000001 -0.3999999999999999 0  0.7999999999999998 -0.3999999999999999 0  1 -0.3999999999999999 0  1.2 -0.3999999999999999 0  1.4 -0.3999999999999999 0  1.6 -0.3999999999999999 0  1.8 -0.3999999999999999 0  2 -0.3999999999999999 0  -2 -0.2 0  -1.8 -0.2 0  -1.6 -0.2 0  -1.4 -0.2 0  -1.2 -0.2 0  -1 -0.2 0  -0.8 -0.2 0  -0.6000000000000001 -0.2 0  -0.3999999999999999 -0.2 0  -0.2 -0.2 0  0 -0.2 0  0.2000000000000002 -0.2 0  0.3999999999999999 -0.2 0  0.6000000000000001 -0.2 0  0.7999999999999998 -0.2 0  1 -0.2 0  1.2 -0.2 0  1.4 -0.2 0  1.6 -0.2 0  1.8 -0.2 0  2 -0.2 0  -2 0 0  -1.8 0 0  -1.6 0 0  -1.4 0 0  -1.2 0 0  -1 0 0  -0.8 0 0  -0.6000000000000001 0 0  -0.3999999999999999 0 0  -0.2 0 0  0 0 0  0.2000000000000002 0 0  0.3999999999999999 0 0  0.6000000000000001 0 0  0.7999999999999998 0 0  1 0 0  1.2 0 0  1.4 0 0  1.6 0 0  1.8 0 0  2 0 0  -2 0.2000000000000002 0  -1.8 0.2000000000000002 0  -1.6 0.2000000000000002 0  -1.4 0.2000000000000002 0  -1.2 0.2000000000000002 0  -1 0.2000000000000002 0  -0.8 0.2000000000000002 0  -0.6000000000000001 0.2000000000000002 0  -0.3999999999999999 0.2000000000000002 0  -0.2 0.2000000000000002 0  0 0.2000000000000002 0  0.2000000000000002 0.2000000000000002 0  0.3999999999999999 0.2000000000000002 0  0.6000000000000001 0.2000000000000002 0  0.7999999999999998 0.2000000000000002 0  1 0.2000000000000002 0  1.2 0.2000000000000002 0  1.4 0.2000000000000002 0  1.6 0.2000000000000002 0  1.8 0.2000000000000002 0  2 0.2000000000000002 0  -2 0.3999999999999999 0  -1.8 0.3999999999999999 0  -1.6 0.3999999999999999 0  -1.4 0.3999999999999999 0  -1.2 0.3999999999999999 0  -1 0.3999999999999999 0  -0.8 0.3999999999999999 0  -0.6000000000000001 0.3999999999999999 0  -0.3999999999999999 0.3999999999999999 0  -0.2 0.3999999999999999 0  0 0.3999999999999999 0  0.2000000000000002 0.3999999999999999 0  0.3999999999999999 0.3999999999999999 0  0.6000000000000001 0.3999999999999999 0  0.7999999999999998 0.3999999999999999 0  1 0.3999999999999999 0  1.2 0.3999999999999999 0  1.4 0.3999999999999999 0  1.6 0.3999999999999999 0  1.8 0.3999999999999999 0  2 0.3999999999999999 0  -2 0.6000000000000001 0  -1.8 0.6000000000000001 0  -1.6 0.6000000000000001 0  -1.4 0.6000000000000001 0  -1.2 0.6000000000000001 0  -1 0.6000000000000001 0  -0.8 0.6000000000000001 0  -0.6000000000000001 0.6000000000000001 0  -0.3999999999999999 0.6000000000000001 0  -0.2 0.6000000000000001 0  0 0.6000000000000001 0  0.2000000000000002 0.6000000000000001 0  0.3999999999999999 0.6000000000000001 0  0.6000000000000001 0.6000000000000001 0  0.7999999999999998 0.6000000000000001 0  1 0.6000000000000001 0  1.2 0.6000000000000001 0  1.4 0.6000000000000001 0  1.6 0.6000000000000001 0  1.8 0.6000000000000001 0  2 0.6000000000000001 0  -2 0.7999999999999998 0  -1.8 0.7999999999999998 0  -1.6 0.7999999999999998 0  -1.4 0.7999999999999998 0  -1.2 0.7999999999999998 0  -1 0.7999999999999998 0  -0.8 0.7999999999999998 0  -0.6000000000000001 0.7999999999999998 0  -0.3999999999999999 0.7999999999999998 0  -0.2 0.7999999999999998 0  0 0.7999999999999998 0  0.2000000000000002 0.7999999999999998 0  0.3999999999999999 0.7999999999999998 0  0.6000000000000001 0.7999999999999998 0  0.7999999999999998 0.7999999999999998 0  1 0.7999999999999998 0  1.2 0.7999999999999998 0  1.4 0.7999999999999998 0  1.6 0.7999999999999998 0  1.8 0.7999999999999998 0  2 0.7999999999999998 0  -2 1 0  -1.8 1 0  -1.6 1 0  -1.4 1 0  -1.2 1 0  -1 1 0  -0.8 1 0  -0.6000000000000001 1 0  -0.3999999999999999 1 0  -0.2 1 0  0 1 0  0.2000000000000002 1 0  0.3999999999999999 1 0  0.6000000000000001 1 0  0.7999999999999998 1 0  1 1 0  1.2 1 0  1.4 1 0  1.6 1 0  1.8 1 0  2 1 0  -2 1.2 0  -1.8 1.2 0  -1.6 1.2 0  -1.4 1.2 0  -1.2 1.2 0  -1 1.2 0  -0.8 1.2 0  -0.6000000000000001 1.2 0  -0.3999999999999999 1.2 0  -0.2 1.2 0  0 1.2 0  0.2000000000000002 1.2 0  0.3999999999999999 1.2 0  0.6000000000000001 1.2 0  0.7999999999999998 1.2 0  1 1.2 0  1.2 1.2 0  1.4 1.2 0  1.6 1.2 0  1.8 1.2 0  2 1.2 0  -2 1.4 0  -1.8 1.4 0  -1.6 1.4 0  -1.4 1.4 0  -1.2 1.4 0  -1 1.4 0  -0.8 1.4 0  -0.6000000000000001 1.4 0  -0.3999999999999999 1.4 0  -0.2 1.4 0  0 1.4 0  0.2000000000000002 1.4 0  0.3999999999999999 1.4 0  0.6000000000000001 1.4 0  0.7999999999999998 1.4 0  1 1.4 0  1.2 1.4 0  1.4 1.4 0  1.6 1.4 0  1.8 1.4 0  2 1.4 0  -2 1.6 0  -1.8 1.6 0  -1.6 1.6 0  -1.4 1.6 0  -1.2 1.6 0  -1 1.6 0  -0.8 1.6 0  -0.6000000000000001 1.6 0  -0.3999999999999999 1.6 0  -0.2 1.6 0  0 1.6 0  0.2000000000000002 1.6 0  0.3999999999999999 1.6 0  0.6000000000000001 1.6 0  0.7999999999999998 1.6 0  1 1.6 0  1.2 1.6 0  1.4 1.6 0  1.6 1.6 0  1.8 1.6 0  2 1.6 0  -2 1.8 0  -1.8 1.8 0  -1.6 1.8 0  -1.4 1.8 0  -1.2 1.8 0  -1 1.8 0  -0.8 1.8 0  -0.6000000000000001 1.8 0  -0.3999999999999999 1.8 0  -0.2 1.8 0  0 1.8 0  0.2000000000000002 1.8 0  0.3999999999999999 1.8 0  0.6000000000000001 1.8 0  0.7999999999999998 1.8 0  1 1.8 0  1.2 1.8 0  1.4 1.8 0  1.6 1.8 0  1.8 1.8 0  2 1.8 0  -2 2 0  -1.8 2 0  -1.6 2 0  -1.4 2 0  -1.2 2 0  -1 2 0  -0.8 2 0  -0.6000000000000001 2 0  -0.3999999999999999 2 0  -0.2 2 0  0 2 0  0.2000000000000002 2 0  0.3999999999999999 2 0  0.6000000000000001 2 0  0.7999999999999998 2 0  1 2 0  1.2 2 0  1.4 2 0  1.6 2 0  1.8 2 0  2 2 0  </DataArray>
</Points>
<Cells>
[...]
<PointData  Scalars="f_8"> 
<DataArray  type="Float64"  Name="f_8"  format="ascii">1.9445358313204442e-03  1.9678450578068355e-03  1.9790955675573706e-03  1.9862426694314352e-03  1.9915177619456766e-03  1.9956920709339608e-03  1.9991133752152168e-03  2.0019895718006086e-03  2.0044771461615140e-03  2.0067124157930934e-03  2.0088237958153740e-03  2.0109372203030267e-03  2.0131792441671547e-03  2.0156801405182825e-03  2.0185793472706046e-03  2.0220379279234924e-03  2.0262705415868233e-03  2.0316362757292318e-03  2.0389306351350622e-03  2.0504585732175570e-03  2.0744831529012769e-03  2.1016921783712189e-03  2.1095946475764406e-03  2.1173270134586825e-03  2.1236324476075754e-03  2.1287198978372458e-03  2.1328793568128630e-03  2.1363324142437668e-03  2.1392508643215593e-03  2.1417808015334406e-03  2.1440564451527134e-03  2.1462070398818407e-03  2.1483603219772766e-03  2.1506446315422501e-03  2.1531910197271553e-03  2.1561367370760308e-03  2.1596323047662052e-03  2.1638558723354557e-03  2.1690383560231249e-03  2.1754820400686180e-03  2.1833948737770177e-03  2.1913655046551417e-03  2.5274230963972261e-03  2.5329219923555203e-03  2.5391485900383617e-03  2.5449051426073002e-03  2.5498938748117123e-03  2.5541269453822559e-03  2.5577069187778419e-03  2.5607597570785809e-03  2.5634168144960498e-03  2.5658106644201191e-03  2.5680743681538226e-03  2.5703414387693831e-03  2.5727458683950321e-03  2.5754220913629809e-03  2.5785047606517743e-03  2.5821276882493959e-03  2.5864190101772488e-03  2.5914813148130316e-03  2.5973185954207500e-03  2.6035990689034240e-03  2.6090344155085521e-03  3.2633582896271413e-03  3.2694178450026140e-03  3.2756501095552943e-03  3.2814745773936667e-03  3.2866401721810008e-03  3.2911019881379784e-03  3.2949171140028853e-03  3.2981896653413675e-03  3.3010454535329593e-03  3.3036206326905126e-03  3.3060563964885411e-03  3.3084961721313766e-03  3.3110836596660382e-03  3.3139607241466635e-03  3.3172641381311054e-03  3.3211194628222844e-03  3.3256283044236353e-03  3.3308404890819471e-03  3.3366946951937054e-03  3.3429087855449719e-03  3.3488618184180953e-03  4.3684458307084346e-03  4.3757141049347772e-03  4.3826115728418267e-03  4.3889033689147082e-03  4.3944643498716645e-03  4.3992792364982141e-03  4.4034079684519296e-03  4.4069556893241227e-03  4.4100533613909655e-03  4.4128463216383113e-03  4.4154875535090642e-03  4.4181334132398064e-03  4.4209403011619460e-03  4.4240611123111343e-03  4.4276403048619430e-03  4.4318060810762160e-03  4.4366574130262487e-03  4.4422427308488553e-03  4.4485280602328675e-03  4.4553627372519141e-03  4.4624877716375778e-03  5.9222444078406667e-03  5.9306653142597830e-03  5.9383444180425632e-03  5.9452067767109644e-03  5.9512202662701328e-03  5.9564123144099802e-03  5.9608616886035488e-03  5.9646844068930865e-03  5.9680212882493536e-03  5.9710286888950415e-03  5.9738719136329024e-03  5.9767203202133259e-03  5.9797431097978471e-03  5.9831048407336116e-03  5.9869597341634514e-03  5.9914438626179640e-03  5.9966644271274589e-03  6.0026859679865908e-03  6.0095157789567064e-03  6.0170973957507775e-03  6.0253327465240609e-03  8.0233041201701379e-03  8.0324277327146285e-03  8.0406156241119402e-03  8.0478613596886225e-03  8.0541827482447006e-03  8.0596346562781807e-03  8.0643090306212646e-03  8.0683288891508116e-03  8.0718407362162826e-03  8.0750074007417873e-03  8.0780018510984795e-03  8.0810018223186481e-03  8.0841847505681089e-03  8.0877223886428404e-03  8.0917745341136105e-03  8.0964815427039122e-03  8.1019557718801597e-03  8.1082729678633950e-03  8.1154662063642503e-03  8.1235274839646602e-03  8.1324237992731734e-03  1.0784231838290789e-02  1.0793231314053922e-02  1.0801300339108814e-02  1.0808452027788854e-02  1.0814715319527541e-02  1.0820145218957761e-02  1.0824826684554355e-02  1.0828873443545342e-02  1.0832423713823536e-02  1.0835634437361533e-02  1.0838675015267548e-02  1.0841720953231984e-02  1.0844947390487213e-02  1.0848522280985241e-02  1.0852599076663466e-02  1.0857309126670430e-02  1.0862754585631990e-02  1.0869003299927536e-02  1.0876087740689648e-02  1.0884010208442853e-02  1.0892755284877403e-02  1.4322827852893519e-02  1.4330465125626263e-02  1.4337430118939636e-02  1.4343719111307655e-02  1.4349332452440208e-02  1.4354288250007265e-02  1.4358631862796168e-02  1.4362439659712225e-02  1.4365817595043266e-02  1.4368896081527230e-02  1.4371822673663876e-02  1.4374753620716527e-02  1.4377844821964532e-02  1.4381242425837076e-02  1.4385073420309310e-02  1.4389437051607711e-02  1.4394398582851759e-02  1.4399987389234580e-02  1.4406201198580822e-02  1.4413016983319657e-02  1.4420406432131889e-02  1.8748310081453553e-02  1.8752937417965316e-02  1.8757477166985139e-02  1.8761870272373714e-02  1.8766040833357981e-02  1.8769921246331239e-02  1.8773472164151310e-02  1.8776693327259706e-02  1.8779625215055121e-02  1.8782343639480083e-02  1.8784949874630773e-02  1.8787558375217079e-02  1.8790283352097360e-02  1.8793225010939850e-02  1.8796456399482075e-02  1.8800012525002904e-02  1.8803884347755217e-02  1.8808020755406000e-02  1.8812340810158472e-02  1.8816755776524922e-02  1.8821195960131022e-02  2.4141996271372826e-02  2.4141651771690750e-02  2.4142204837928560e-02  2.4143492798756962e-02  2.4145302698911741e-02  2.4147418849990616e-02  2.4149660392022872e-02  2.4151902220973340e-02  2.4154079769148608e-02  2.4156181743610398e-02  2.4158235470429147e-02  2.4160288399376454e-02  2.4162387939020258e-02  2.4164560995151491e-02  2.4166794776070196e-02  2.4169021570107065e-02  2.4171111786449963e-02  2.4172880523977480e-02  2.4174111772672480e-02  2.4174599659491626e-02  2.4174198027590414e-02  3.0532783233573016e-02  3.0525429242312812e-02  3.0520406033689721e-02  3.0517384513416176e-02  3.0515937906081623e-02  3.0515627534045221e-02  3.0516066808852951e-02  3.0516954646046757e-02  3.0518081912330127e-02  3.0519319331228797e-02  3.0520594902991874e-02  3.0521866373978922e-02  3.0523091773388862e-02  3.0524199678439751e-02  3.0525061132455119e-02  3.0525466985634041e-02  3.0525117258163086e-02  3.0523631501038102e-02  3.0520588539281870e-02  3.0515597289374211e-02  3.0508385929025758e-02  3.7869379667001449e-02  3.7853313172053094e-02  3.7841448635734992e-02  3.7833208179770560e-02  3.7827857741372282e-02  3.7824654026069826e-02  3.7822943442695142e-02  3.7822206711461873e-02  3.7822061830268587e-02  3.7822241892092552e-02  3.7822560638149878e-02  3.7822873275014358e-02  3.7823035812687568e-02  3.7822864067530992e-02  3.7822093820860013e-02  3.7820346418840287e-02  3.7817108917558601e-02  3.7811743257097644e-02  3.7803541377020390e-02  3.7791836398499326e-02  3.7776156830233602e-02  4.5993420176552731e-02  4.5967840519446301e-02  4.5948677148102940e-02  4.5934989685473666e-02  4.5925626420943638e-02  4.5919463739745904e-02  4.5915541731846213e-02  4.5913108806592155e-02  4.5911609147590356e-02  4.5910642301764358e-02  4.5909912937420666e-02  4.5909178977285678e-02  4.5908200023082685e-02  4.5906685195807616e-02  4.5904239918135720e-02  4.5900314823661317e-02  4.5894167193473952e-02  4.5884855745946335e-02  4.5871300086102552e-02  4.5852436828424943e-02  4.5827475488791347e-02  5.4619911435517955e-02  5.4585562700613474e-02  5.4560003195026227e-02  5.4541749925988640e-02  5.4529103886699799e-02  5.4520514464000719e-02  5.4514728672931723e-02  5.4510803314923605e-02  5.4508054507989963e-02  5.4505988837152186e-02  5.4504235618483096e-02  5.4502485199797723e-02  5.4500431071602663e-02  5.4497710888046662e-02  5.4493841858578133e-02  5.4488149543952313e-02  5.4479697579993248e-02  5.4467242113543139e-02  5.4449260516591103e-02  5.4424131484835436e-02  5.4390535190006119e-02  6.3333110860462186e-02  6.3292849136169227e-02  6.3263671928477483e-02  6.3243210679921766e-02  6.3229067510100420e-02  6.3219291135122410e-02  6.3212447405685671e-02  6.3207528748600320e-02  6.3203832968482296e-02  6.3200858504386045e-02  6.3198224182730856e-02  6.3195607418571678e-02  6.3192691021339772e-02  6.3189108175325262e-02  6.3184375327857797e-02  6.3177803901731583e-02  6.3168386986318520e-02  6.3154674148124465e-02  6.3134691173469842e-02  6.3106048889884456e-02  6.3066489749662821e-02  7.1605689649273635e-02  7.1564840607847305e-02  7.1537077968567245e-02  7.1518413876551862e-02  7.1505612290795995e-02  7.1496516176737912e-02  7.1489786916762568e-02  7.1484594418772252e-02  7.1480396750507089e-02  7.1476807889678973e-02  7.1473523537884581e-02  7.1470278328995884e-02  7.1466815272200765e-02  7.1462852564771709e-02  7.1458032754851256e-02  7.1451834871364917e-02  7.1443423402645423e-02  7.1431407439275507e-02  7.1413519754960061e-02  7.1386383860617506e-02  7.1345959106442688e-02  7.8845554560915021e-02  7.8812263211563122e-02  7.8793472713718976e-02  7.8782071455423722e-02  7.8774112482362019e-02  7.8767813766415423e-02  7.8762453818967085e-02  7.8757737901230057e-02  7.8753506624265016e-02  7.8749624376575594e-02  7.8745949860375281e-02  7.8742339789132629e-02  7.8738662415213351e-02  7.8734807752417674e-02  7.8730680973319200e-02  7.8726154585522345e-02  7.8720928875458077e-02  7.8714201255362881e-02  7.8703983803554381e-02  7.8685968008402385e-02  7.8652646668524798e-02  8.4467043117272628e-02  8.4454330353858326e-02  8.4455028492557399e-02  8.4456982421525009e-02  8.4457034108219087e-02  8.4455154204428756e-02  8.4452029828070874e-02  8.4448296261724287e-02  8.4444364818153594e-02  8.4440441337978206e-02  8.4436595709642015e-02  8.4432838546734335e-02  8.4429194362937984e-02  8.4425770917146786e-02  8.4422824108967787e-02  8.4420807008979956e-02  8.4420357775134597e-02  8.4422082280623145e-02  8.4425708882738232e-02  8.4427527016162129e-02  8.4414366970368235e-02  8.7970524251577031e-02  8.8008263791611765e-02  8.8042225589621853e-02  8.8061820507310901e-02  8.8070842839564470e-02  8.8073457316911338e-02  8.8072516976854573e-02  8.8069767718126135e-02  8.8066204916714103e-02  8.8062352221128265e-02  8.8058464831538702e-02  8.8054683710931572e-02  8.8051164445344512e-02  8.8048201664606918e-02  8.8046369916369702e-02  8.8046705206673084e-02  8.8050956066989414e-02  8.8061911199511053e-02  8.8083569181606244e-02  8.8119308450714751e-02  8.8156796564424350e-02  8.8990560058963886e-02  8.9185886084006696e-02  8.9261719941787179e-02  8.9294569610434443e-02  8.9308590127665816e-02  8.9313336911830493e-02  8.9313352724055370e-02  8.9311020718536777e-02  8.9307617335427386e-02  8.9303804953203850e-02  8.9299915082675083e-02  8.9296140246763619e-02  8.9292686853629621e-02  8.9289922910746486e-02  8.9288554383325086e-02  8.9289883004907616e-02  8.9296266668185922e-02  8.9312142654063176e-02  8.9346882637031250e-02  8.9424533846328910e-02  8.9622549003461338e-02  </DataArray> 
</PointData> 
</Piece>
</UnstructuredGrid>
</VTKFile>