<?xml version="1.0"?>
<VTKFile type="UnstructuredGrid"  version="0.1"  >
<UnstructuredGrid>
<Piece  NumberOfPoints="441" NumberOfCells="800">
<Points>
<DataArray  type="Float64"  NumberOfComponents="3"  format="ascii">-2 -2 0  -1.8 -2 0  -1.6 -2 0  -1.4 -2 0  -1.2 -2 0  -1 -2 0  -0.8 -2 0  -0.6000000000000001 -2 0  -0.3999999999999999 -2 0  -0.2 -2 0  0 -2 0  0.2000000000000002 -2 0  0.3999999999999999 -2 0  0.6000000000000001 -2 0  0.7999999999999998 -2 0  1 -2 0  1.2 -2 0  1.4 -2 0  1.6 -2 0  1.8 -2 0  2 -2 0  -2 -1.8 0  -1.8 -1.8 0  -1.6 -1.8 0  -1.4 -1.8 0  -1.2 -1.8 0  -1 -1.8 0  -0.8 -1.8 0  -0.6000000000000001 -1.8 0  -0.3999999999999999 -1.8 0  -0.2 -1.8 0  0 -1.8 0  0.2000000000000002 -1.8 0  0.3999999999999999 -1.8 0  0.6000000000000001 -1.8 0  0.7999999999999998 -1.8 0  1 -1.8 0  1.2 -1.8 0  1.4 -1.8 0  1.6 -1.8 0  1.8 -1.8 0  2 -1.8 0  -2 -1.6 0  -1.8 -1.6 0  -1.6 -1.6 0  -1.4 -1.6 0  -1.2 -1.6 0  -1 -1.6 0  -0.8 -1.6 0  -0.6000000000000001 -1.6 0  -0.3999999999999999 -1.6 0  -0.2 -1.6 0  0 -1.6 0  0.2000000000000002 -1.6 0  0.3999999999999999 -1.6 0  0.6000000000000001 -1.6 0  0.7999999999999998 -1.6 0  1 -1.6 0  1.2 -1.6 0  1.4 -1.6 0  1.6 -1.6 0  1.8 -1.6 0  2 -1.6 0  -2 -1.4 0  -1.8 -1.4 0  -1.6 -1.4 0  -1.4 -1.4 0  -1.2 -1.4 0  -1 -1.4 0  -0.8 -1.4 0  -0.6000000000000001 -1.4 0  -0.3999999999999999 -1.4 0  -0.2 -1.4 0  0 -1.4 0  0.2000000000000002 -1.4 0  0.3999999999999999 -1.4 0  0.6000000000000001 -1.4 0  0.7999999999999998 -1.4 0  1 -1.4 0  1.2 -1.4 0  1.4 -1.4 0  1.6 -1.4 0  1.8 -1.4 0  2 -1.4 0  -2 -1.2 0  -1.8 -1.2 0  -1.6 -1.2 0  -1.4 -1.2 0  -1.2 -1.2 0  -1 -1.2 0  -0.8 -1.2 0  -0.6000000000000001 -1.2 0  -0.3999999999999999 -1.2 0  -0.2 -1.2 0  0 -1.2 0  0.2000000000000002 -1.2 0  0.3999999999999999 -1.2 0  0.6000000000000001 -1.2 0  0.7999999999999998 -1.2 0  1 -1.2 0  1.2 -1.2 0  1.4 -1.2 0  1.6 -1.2 0  1.8 -1.2 0  2 -1.2 0  -2 -1 0  -1.8 -1 0  -1.6 -1 0  -1.4 -1 0  -1.2 -1 0  -1 -1 0  -0.8 -1 0  -0.6000000000000001 -1 0  -0.3999999999999999 -1 0  -0.2 -1 0  0 -1 0  0.2000000000000002 -1 0  0.3999999999999999 -1 0  0.6000000000000001 -1 0  0.7999999999999998 -1 0  1 -1 0  1.2 -1 0  1.4 -1 0  1.6 -1 0  1.8 -1 0  2 -1 0  -2 -0.8 0  -1.8 -0.8 0  -1.6 -0.8 0  -1.4 -0.8 0  -1.2 -0.8 0  -1 -0.8 0  -0.8 -0.8 0  -0.6000000000000001 -0.8 0  -0.3999999999999999 -0.8 0  -0.2 -0.8 0  0 -0.8 0  0.2000000000000002 -0.8 0  0.3999999999999999 -0.8 0  0.6000000000000001 -0.8 0  0.7999999999999998 -0.8 0  1 -0.8 0  1.2 -0.8 0  1.4 -0.8 0  1.6 -0.8 0  1.8 -0.8 0  2 -0.8 0  -2 -0.6000000000000001 0  -1.8 -0.6000000000000001 0  -1.6 -0.6000000000000001 0  -1.4 -0.6000000000000001 0  -1.2 -0.6000000000000001 0  -1 -0.6000000000000001 0  -0.8 -0.6000000000000001 0  -0.6000000000000001 -0.6000000000000001 0  -0.3999999999999999 -0.6000000000000001 0  -0.2 -0.6000000000000001 0  0 -0.6000000000000001 0  0.2000000000000002 -0.6000000000000001 0  0.3999999999999999 -0.6000000000000001 0  0.6000000000000001 -0.6000000000000001 0  0.7999999999999998 -0.6000000000000001 0  1 -0.6000000000000001 0  1.2 -0.6000000000000001 0  1.4 -0.6000000000000001 0  1.6 -0.6000000000000001 0  1.8 -0.6000000000000001 0  2 -0.6000000000000001 0  -2 -0.3999999999999999 0  -1.8 -0.3999999999999999 0  -1.6 -0.3999999999999999 0  -1.4 -0.3999999999999999 0  -1.2 -0.3999999999999999 0  -1 -0.3999999999999999 0  -0.8 -0.3999999999999999 0  -0.6000000000000001 -0.3999999999999999 0  -0.3999999999999999 -0.3999999999999999 0  -0.2 -0.3999999999999999 0  0 -0.3999999999999999 0  0.2000000000000002 -0.3999999999999999 0  0.3999999999999999 -0.3999999999999999 0  0.6000000000000001 -0.3999999999999999 0  0.7999999999999998 -0.3999999999999999 0  1 -0.3999999999999999 0  1.2 -0.3999999999999999 0  1.4 -0.3999999999999999 0  1.6 -0.3999999999999999 0  1.8 -0.3999999999999999 0  2 -0.3999999999999999 0  -2 -0.2 0  -1.8 -0.2 0  -1.6 -0.2 0  -1.4 -0.2 0  -1.2 -0.2 0  -1 -0.2 0  -0.8 -0.2 0  -0.6000000000000001 -0.2 0  -0.3999999999999999 -0.2 0  -0.2 -0.2 0  0 -0.2 0  0.2000000000000002 -0.2 0  0.3999999999999999 -0.2 0  0.6000000000000001 -0.2 0  0.7999999999999998 -0.2 0  1 -0.2 0  1.2 -0.2 0  1.4 -0.2 0  1.6 -0.2 0  1.8 -0.2 0  2 -0.2 0  -2 0 0  -1.8 0 0  -1.6 0 0  -1.4 0 0  -1.2 0 0  -1 0 0  -0.8 0 0  -0.6000000000000001 0 0  -0.3999999999999999 0 0  -0.2 0 0  0 0 0  0.2000000000000002 0 0  0.3999999999999999 0 0  0.6000000000000001 0 0  0.7999999999999998 0 0  1 0 0  1.2 0 0  1.4 0 0  1.6 0 0  1.8 0 0  2 0 0  -2 0.2000000000000002 0  -1.8 0.2000000000000002 0  -1.6 0.2000000000000002 0  -1.4 0.2000000000000002 0  -1.2 0.2000000000000002 0  -1 0.2000000000000002 0  -0.8 0.2000000000000002 0  -0.6000000000000001 0.2000000000000002 0  -0.3999999999999999 0.2000000000000002 0  -0.2 0.2000000000000002 0  0 0.2000000000000002 0  0.2000000000000002 0.2000000000000002 0  0.3999999999999999 0.2000000000000002 0  0.6000000000000001 0.2000000000000002 0  0.7999999999999998 0.2000000000000002 0  1 0.2000000000000002 0  1.2 0.2000000000000002 0  1.4 0.2000000000000002 0  1.6 0.2000000000000002 0  1.8 0.2000000000000002 0  2 0.2000000000000002 0  -2 0.3999999999999999 0  -1.8 0.3999999999999999 0  -1.6 0.3999999999999999 0  -1.4 0.3999999999999999 0  -1.2 0.3999999999999999 0  -1 0.3999999999999999 0  -0.8 0.3999999999999999 0  -0.6000000000000001 0.3999999999999999 0  -0.3999999999999999 0.3999999999999999 0  -0.2 0.3999999999999999 0  0 0.3999999999999999 0  0.2000000000000002 0.3999999999999999 0  0.3999999999999999 0.3999999999999999 0  0.6000000000000001 0.3999999999999999 0  0.7999999999999998 0.3999999999999999 0  1 0.3999999999999999 0  1.2 0.3999999999999999 0  1.4 0.3999999999999999 0  1.6 0.3999999999999999 0  1.8 0.3999999999999999 0  2 0.3999999999999999 0  -2 0.6000000000000001 0  -1.8 0.6000000000000001 0  -1.6 0.6000000000000001 0  -1.4 0.6000000000000001 0  -1.2 0.6000000000000001 0  -1 0.6000000000000001 0  -0.8 0.6000000000000001 0  -0.6000000000000001 0.6000000000000001 0  -0.3999999999999999 0.6000000000000001 0  -0.2 0.6000000000000001 0  0 0.6000000000000001 0  0.2000000000000002 0.6000000000000001 0  0.3999999999999999 0.6000000000000001 0  0.6000000000000001 0.6000000000000001 0  0.7999999999999998 0.6000000000000001 0  1 0.6000000000000001 0  1.2 0.6000000000000001 0  1.4 0.6000000000000001 0  1.6 0.6000000000000001 0  1.8 0.6000000000000001 0  2 0.6000000000000001 0  -2 0.7999999999999998 0  -1.8 0.7999999999999998 0  -1.6 0.7999999999999998 0  -1.4 0.7999999999999998 0  -1.2 0.7999999999999998 0  -1 0.7999999999999998 0  -0.8 0.7999999999999998 0  -0.6000000000000001 0.7999999999999998 0  -0.3999999999999999 0.7999999999999998 0  -0.2 0.7999999999999998 0  0 0.7999999999999998 0  0.2000000000000002 0.7999999999999998 0  0.3999999999999999 0.7999999999999998 0  0.6000000000000001 0.7999999999999998 0  0.7999999999999998 0.7999999999999998 0  1 0.7999999999999998 0  1.2 0.7999999999999998 0  1.4 0.7999999999999998 0  1.6 0.7999999999999998 0  1.8 0.7999999999999998 0  2 0.7999999999999998 0  -2 1 0  -1.8 1 0  -1.6 1 0  -1.4 1 0  -1.2 1 0  -1 1 0  -0.8 1 0  -0.6000000000000001 1 0  -0.3999999999999999 1 0  -0.2 1 0  0 1 0  0.2000000000000002 1 0  0.3999999999999999 1 0  0.6000000000000001 1 0  0.7999999999999998 1 0  1 1 0  1.2 1 0  1.4 1 0  1.6 1 0  1.8 1 0  2 1 0  -2 1.2 0  -1.8 1.2 0  -1.6 1.2 0  -1.4 1.2 0  -1.2 1.2 0  -1 1.2 0  -0.8 1.2 0  -0.6000000000000001 1.2 0  -0.3999999999999999 1.2 0  -0.2 1.2 0  0 1.2 0  0.2000000000000002 1.2 0  0.3999999999999999 1.2 0  0.6000000000000001 1.2 0  0.7999999999999998 1.2 0  1 1.2 0  1.2 1.2 0  1.4 1.2 0  1.6 1.2 0  1.8 1.2 0  2 1.2 0  -2 1.4 0  -1.8 1.4 0  -1.6 1.4 0  -1.4 1.4 0  -1.2 1.4 0  -1 1.4 0  -0.8 1.4 0  -0.6000000000000001 1.4 0  -0.3999999999999999 1.4 0  -0.2 1.4 0  0 1.4 0  0.2000000000000002 1.4 0  0.3999999999999999 1.4 0  0.6000000000000001 1.4 0  0.7999999999999998 1.4 0  1 1.4 0  1.2 1.4 0  1.4 1.4 0  1.6 1.4 0  1.8 1.4 0  2 1.4 0  -2 1.6 0  -1.8 1.6 0  -1.6 1.6 0  -1.4 1.6 0  -1.2 1.6 0  -1 1.6 0  -0.8 1.6 0  -0.6000000000000001 1.6 0  -0.3999999999999999 1.6 0  -0.2 1.6 0  0 1.6 0  0.2000000000000002 1.6 0  0.3999999999999999 1.6 0  0.6000000000000001 1.6 0  0.7999999999999998 1.6 0  1 1.6 0  1.2 1.6 0  1.4 1.6 0  1.6 1.6 0  1.8 1.6 0  2 1.6 0  -2 1.8 0  -1.8 1.8 0  -1.6 1.8 0  -1.4 1.8 0  -1.2 1.8 0  -1 1.8 0  -0.8 1.8 0  -0.6000000000000001 1.8 0  -0.3999999999999999 1.8 0  -0.2 1.8 0  0 1.8 0  0.2000000000000002 1.8 0  0.3999999999999999 1.8 0  0.6000000000000001 1.8 0  0.7999999999999998 1.8 0  1 1.8 0  1.2 1.8 0  1.4 1.8 0  1.6 1.8 0  1.8 1.8 0  2 1.8 0  -2 2 0  -1.8 2 0  -1.6 2 0  -1.4 2 0  -1.2 2 0  -1 2 0  -0.8 2 0  -0.6000000000000001 2 0  -0.3999999999999999 2 0  -0.2 2 0  0 2 0  0.2000000000000002 2 0  0.3999999999999999 2 0  0.6000000000000001 2 0  0.7999999999999998 2 0  1 2 0  1.2 2 0  1.4 2 0  1.6 2 0  1.8 2 0  2 2 0  </DataArray>
</Points>
<Cells>
[...]
<PointData  Scalars="f_8"> 
<DataArray  type="Float64"  Name="f_8"  format="ascii">4.0873694472089855e-04  4.1697290705868309e-04  4.2118956425595206e-04  4.2399069072332723e-04  4.2608861454469782e-04  4.2773020045000737e-04  4.2903529918270473e-04  4.3008511528340568e-04  4.3094762657085585e-04  4.3168565014539814e-04  4.3235986667233600e-04  4.3303044031668778e-04  4.3375834023063535e-04  4.3460672591643550e-04  4.3564277324150346e-04  4.3694111736386054e-04  4.3859279726823729e-04  4.4073288538433876e-04  4.4363580772507032e-04  4.4808076462663588e-04  4.5690119767165130e-04  4.6171305083333222e-04  4.6515339960644185e-04  4.6842263693794750e-04  4.7110022045388660e-04  4.7324900083509124e-04  4.7496855971229136e-04  4.7634488101227753e-04  4.7745314612159580e-04  4.7836275575870982e-04  4.7914004124345800e-04  4.7984976329947296e-04  4.8055630002440987e-04  4.8132485363867742e-04  4.8222271640421018e-04  4.8332064566806608e-04  4.8469471796649759e-04  4.8642965531612778e-04  4.8862476171278356e-04  4.9139678285970486e-04  4.9481848825997125e-04  4.9838006585968000e-04  6.1020662272169004e-04  6.1362642905692186e-04  6.1700093356017657e-04  6.1995497754965627e-04  6.2241599188888979e-04  6.2441732886308796e-04  6.2602590794323177e-04  6.2731857925749958e-04  6.2837433482573995e-04  6.2927173690065382e-04  6.3008844888154522e-04  6.3090184846459753e-04  6.3179016567758886e-04  6.3283364480194769e-04  6.3411521288977719e-04  6.3572003553135313e-04  6.3773275473852234e-04  6.4022868673473533e-04  6.4324640712754336e-04  6.4670395787523550e-04  6.5018113671212350e-04  8.8272198116251185e-04  8.8749331324614912e-04  8.9182369036741203e-04  8.9555736932244161e-04  8.9866262841691090e-04  9.0118307661596494e-04  9.0319935935762193e-04  9.0480791218359611e-04  9.0611026704338470e-04  9.0720821820756807e-04  9.0820238857534583e-04  9.0919279293624430e-04  9.1028034948211021e-04  9.1156836360936915e-04  9.1316297399932740e-04  9.1517140322502650e-04  9.1769639258516866e-04  9.2082396314757849e-04  9.2459924752431215e-04  9.2898424585533251e-04  9.3381116480992883e-04  1.3261624503495177e-03  1.3330016732687722e-03  1.3389294191251369e-03  1.3439223986928346e-03  1.3480197930312388e-03  1.3513117796090960e-03  1.3539193412716126e-03  1.3559778364411997e-03  1.3576264538005200e-03  1.3590028629484514e-03  1.3602418387926984e-03  1.3614765534440123e-03  1.3628411826652096e-03  1.3644734223228774e-03  1.3665154697785234e-03  1.3691120102974439e-03  1.3724037740852988e-03  1.3765153907310439e-03  1.3815371422980932e-03  1.3875040942525128e-03  1.3943887103833011e-03  2.0123953502948844e-03  2.0219228975290439e-03  2.0300072782958169e-03  2.0367072083317932e-03  2.0421350379654195e-03  2.0464464771867506e-03  2.0498235969520434e-03  2.0524591478899936e-03  2.0545456383388701e-03  2.0562699028858333e-03  2.0578125008508040e-03  2.0593505768623311e-03  2.0610624538800991e-03  2.0631320510924246e-03  2.0657511701242920e-03  2.0691178109307233e-03  2.0734290928280845e-03  2.0788682945058288e-03  2.0855873715420799e-03  2.0936896394208966e-03  2.1032221653084302e-03  3.0452601116241944e-03  3.0580571823532786e-03  3.0687918273433938e-03  3.0775904329145187e-03  3.0846434792843299e-03  3.0901873882367642e-03  3.0944832217185345e-03  3.0977980563646045e-03  3.1003923953023737e-03  3.1025145986691683e-03  3.1044016189330694e-03  3.1062842987830269e-03  3.1083949345765164e-03  3.1109745377831417e-03  3.1142771532609356e-03  3.1185687818081828e-03  3.1241191145147881e-03  3.1311856847944857e-03  3.1399923257554307e-03  3.1507067092767394e-03  3.1634240072426979e-03  4.5682877115651157e-03  4.5847720225876227e-03  4.5984924202570852e-03  4.6096451336791839e-03  4.6185073743616944e-03  4.6254091453214585e-03  4.6307043909335150e-03  4.6347472612407060e-03  4.6378769310106089e-03  4.6404118579006573e-03  4.6426523677150760e-03  4.6448891971725068e-03  4.6474149451684304e-03  4.6505350418235385e-03  4.6545747181519961e-03  4.6598786503453879e-03  4.6668007794582736e-03  4.6756836394761230e-03  4.6868294446424669e-03  4.7004685444751518e-03  4.7167330428545583e-03  6.7718482359118981e-03  6.7920104671593418e-03  6.8086937898687201e-03  6.8221677239253048e-03  6.8327991997786846e-03  6.8410148779917673e-03  6.8472643693836769e-03  6.8519909133925097e-03  6.8556133602662613e-03  6.8585202953477913e-03  6.8610747398077116e-03  6.8636263470526673e-03  6.8665272063346602e-03  6.8701469394053735e-03  6.8748825581293107e-03  6.8811586918630843e-03  6.8894147723783886e-03  6.9000781507657302e-03  6.9135260461659891e-03  6.9300437219543950e-03  6.9497891067068253e-03  9.8969894234853181e-03  9.9199796760274968e-03  9.9389335756970686e-03  9.9541814298749268e-03  9.9661594139916990e-03  9.9753675880062606e-03  9.9823286737387041e-03  9.9875547872972162e-03  9.9915269094901990e-03  9.9946884954086272e-03  9.9974516273683301e-03  1.0000212134505651e-02  1.0003369023128659e-02  1.0007342971008295e-02  1.0012588288137590e-02  1.0019592840928439e-02  1.0028861667848438e-02  1.0040883227686124e-02  1.0056082598243591e-02  1.0074771911025090e-02  1.0097111286838815e-02  1.4231365977110810e-02  1.4254939377019007e-02  1.4274399872875274e-02  1.4290082740236364e-02  1.4302419106618608e-02  1.4311905238339862e-02  1.4319066942579908e-02  1.4324426479558183e-02  1.4328479511336315e-02  1.4331686048224237e-02  1.4334475110623884e-02  1.4337259688557789e-02  1.4340456782730243e-02  1.4344506348508626e-02  1.4349882459223385e-02  1.4357090208341011e-02  1.4366643743943914e-02  1.4379025547616962e-02  1.4394634682556818e-02  1.4413739254122628e-02  1.4436449292815835e-02  2.0090468383746861e-02  2.0110377582154445e-02  2.0127101107813000e-02  2.0140834710582162e-02  2.0151829126077464e-02  2.0160406516809594e-02  2.0166950309136900e-02  2.0171877723770694e-02  2.0175611127940914e-02  2.0178559733453574e-02  2.0181115480586452e-02  2.0183660903013115e-02  2.0186583281222765e-02  2.0190287685884021e-02  2.0195200888387523e-02  2.0201758857009679e-02  2.0210374061016452e-02  2.0221386735324448e-02  2.0235016163552479e-02  2.0251337612583447e-02  2.0270304445111284e-02  2.7775480158245630e-02  2.7785055824663431e-02  2.7794108084086298e-02  2.7802390360085322e-02  2.7809632807884940e-02  2.7815676024429997e-02  2.7820515869108432e-02  2.7824282471906065e-02  2.7827193803146261e-02  2.7829512968972285e-02  2.7831521448565183e-02  2.7833508060041055e-02  2.7835766759298691e-02  2.7838593492369328e-02  2.7842271695242317e-02  2.7847038005028510e-02  2.7853026673990207e-02  2.7860205995252060e-02  2.7868341795996905e-02  2.7877038672968563e-02  2.7885888683668106e-02  3.7499027707764178e-02  3.7489419656492967e-02  3.7484528054996274e-02  3.7483108266477536e-02  3.7483798846861427e-02  3.7485489113919024e-02  3.7487445542674108e-02  3.7489277660745370e-02  3.7490842369715560e-02  3.7492148899996844e-02  3.7493288402029513e-02  3.7494388474893482e-02  3.7495581855202999e-02  3.7496974416999257e-02  3.7498597147290258e-02  3.7500330379444211e-02  3.7501800870173727e-02  3.7502280013931293e-02  3.7500655803377796e-02  3.7495589462169229e-02  3.7485931169647733e-02  4.9274539453189097e-02  4.9236340585831387e-02  4.9211329971017806e-02  4.9196345642510464e-02  4.9188108963328182e-02  4.9183974433845284e-02  4.9182114757462835e-02  4.9181402354182682e-02  4.9181202755173785e-02  4.9181187296810230e-02  4.9181196011484588e-02  4.9181144226251777e-02  4.9180952666202718e-02  4.9180477074106020e-02  4.9179412972699246e-02  4.9177155111770093e-02  4.9172607966497583e-02  4.9163989203796915e-02  4.9148756405062902e-02  4.9123896570988979e-02  4.9086816350667521e-02  6.2777691619514964e-02  6.2704734708012133e-02  6.2656551937216587e-02  6.2626664639237689e-02  6.2608913370943459e-02  6.2598639776942105e-02  6.2592739669439665e-02  6.2589295188522867e-02  6.2587168706767726e-02  6.2585688321421029e-02  6.2584435124049820e-02  6.2583102728625953e-02  6.2581392466642530e-02  6.2578908314833856e-02  6.2575014833661444e-02  6.2568620433910066e-02  6.2557859793649140e-02  6.2539703366214949e-02  6.2509668819985570e-02  6.2462083726583809e-02  6.2391607454916141e-02  7.7212780827019198e-02  7.7108411291324189e-02  7.7041792796146660e-02  7.7001097566219243e-02  7.6976632173724260e-02  7.6961876020730569e-02  7.6952817631384202e-02  7.6947071665373540e-02  7.6943212431264271e-02  7.6940350615052625e-02  7.6937879956895591e-02  7.6935321335012727e-02  7.6932210304007695e-02  7.6927985215594671e-02  7.6921830941580366e-02  7.6912418795649348e-02  7.6897465816667690e-02  7.6873051028423442e-02  7.6832773143388808e-02  7.6767332296586097e-02  7.6666206047422955e-02  9.1250716553586381e-02  9.1135608264643869e-02  9.1068308832349329e-02  9.1028782701976022e-02  9.1004651524362462e-02  9.0989240416823700e-02  9.0979008462001715e-02  9.0971970681699876e-02  9.0966900545483176e-02  9.0962951770043529e-02  9.0959474659037920e-02  9.0955915702030155e-02  9.0951749098346302e-02  9.0946411246044120e-02  9.0939205235034459e-02  9.0929111117376726e-02  9.0914367891735959e-02  9.0891576014632880e-02  9.0853965296811057e-02  9.0788784166437791e-02  9.0676057116829550e-02  1.0313104710102979e-01  1.0305157115420596e-01  1.0301738251647494e-01  1.0299808979122760e-01  1.0298399167718386e-01  1.0297267918838521e-01  1.0296360791172933e-01  1.0295646367366014e-01  1.0295082845192072e-01  1.0294619308221947e-01  1.0294201896751272e-01  1.0293778190755364e-01  1.0293300214861763e-01  1.0292728098735821e-01  1.0292035880838710e-01  1.0291217949401960e-01  1.0290285296643797e-01  1.0289214010355294e-01  1.0287737539655688e-01  1.0284719676410881e-01  1.0276753367313274e-01  1.1099241023395108e-01  1.1104099587249856e-01  1.1108531709357854e-01  1.1110382803509275e-01  1.1110631113035435e-01  1.1110171357908573e-01  1.1109502759110833e-01  1.1108847327020180e-01  1.1108274096244711e-01  1.1107777840731471e-01  1.1107322235832311e-01  1.1106862583559746e-01  1.1106360054641226e-01  1.1105796808837375e-01  1.1105200688483136e-01  1.1104689145298562e-01  1.1104542826220092e-01  1.1105310617797681e-01  1.1107879508177561e-01  1.1113034636529105e-01  1.1117746619770054e-01  1.1334293339462526e-01  1.1377405334192808e-01  1.1392140110038501e-01  1.1397152506605886e-01  1.1398473083186916e-01  1.1398392024807816e-01  1.1397851629789263e-01  1.1397231342929405e-01  1.1396659680282425e-01  1.1396154077879983e-01  1.1395686733024224e-01  1.1395216888510240e-01  1.1394710306476018e-01  1.1394159528938902e-01  1.1393617636658562e-01  1.1393263246742354e-01  1.1393531358346597e-01  1.1395399986416392e-01  1.1401130623162736e-01  1.1416633302643539e-01  1.1460565173257309e-01  </DataArray> 
</PointData> 
</Piece>
</UnstructuredGrid>
</VTKFile>