<?xml version="1.0"?>
<VTKFile type="UnstructuredGrid"  version="0.1"  >
<UnstructuredGrid>
<Piece  NumberOfPoints="441" NumberOfCells="800">
<Points>
<DataArray  type="Float64"  NumberOfComponents="3"  format="ascii">-2 -2 0  -1.8 -2 0  -1.6 -2 0  -1.4 -2 0  -1.2 -2 0  -1 -2 0  -0.8 -2 0  -0.6000000000000001 -2 0  -0.3999999999999999 -2 0  -0.2 -2 0  0 -2 0  0.2000000000000002 -2 0  0.3999999999999999 -2 0  0.6000000000000001 -2 0  0.7999999999999998 -2 0  1 -2 0  1.2 -2 0  1.4 -2 0  1.6 -2 0  1.8 -2 0  2 -2 0  -2 -1.8 0  -1.8 -1.8 0  -1.6 -1.8 0  -1.4 -1.8 0  -1.2 -1.8 0  -1 -1.8 0  -0.8 -1.8 0  -0.6000000000000001 -1.8 0  -0.3999999999999999 -1.8 0  -0.2 -1.8 0  0 -1.8 0  0.2000000000000002 -1.8 0  0.3999999999999999 -1.8 0  0.6000000000000001 -1.8 0  0.7999999999999998 -1.8 0  1 -1.8 0  1.2 -1.8 0  1.4 -1.8 0  1.6 -1.8 0  1.8 -1.8 0  2 -1.8 0  -2 -1.6 0  -1.8 -1.6 0  -1.6 -1.6 0  -1.4 -1.6 0  -1.2 -1.6 0  -1 -1.6 0  -0.8 -1.6 0  -0.6000000000000001 -1.6 0  -0.3999999999999999 -1.6 0  -0.2 -1.6 0  0 -1.6 0  0.2000000000000002 -1.6 0  0.3999999999999999 -1.6 0  0.6000000000000001 -1.6 0  0.7999999999999998 -1.6 0  1 -1.6 0  1.2 -1.6 0  1.4 -1.6 0  1.6 -1.6 0  1.8 -1.6 0  2 -1.6 0  -2 -1.4 0  -1.8 -1.4 0  -1.6 -1.4 0  -1.4 -1.4 0  -1.2 -1.4 0  -1 -1.4 0  -0.8 -1.4 0  -0.6000000000000001 -1.4 0  -0.3999999999999999 -1.4 0  -0.2 -1.4 0  0 -1.4 0  0.2000000000000002 -1.4 0  0.3999999999999999 -1.4 0  0.6000000000000001 -1.4 0  0.7999999999999998 -1.4 0  1 -1.4 0  1.2 -1.4 0  1.4 -1.4 0  1.6 -1.4 0  1.8 -1.4 0  2 -1.4 0  -2 -1.2 0  -1.8 -1.2 0  -1.6 -1.2 0  -1.4 -1.2 0  -1.2 -1.2 0  -1 -1.2 0  -0.8 -1.2 0  -0.6000000000000001 -1.2 0  -0.3999999999999999 -1.2 0  -0.2 -1.2 0  0 -1.2 0  0.2000000000000002 -1.2 0  0.3999999999999999 -1.2 0  0.6000000000000001 -1.2 0  0.7999999999999998 -1.2 0  1 -1.2 0  1.2 -1.2 0  1.4 -1.2 0  1.6 -1.2 0  1.8 -1.2 0  2 -1.2 0  -2 -1 0  -1.8 -1 0  -1.6 -1 0  -1.4 -1 0  -1.2 -1 0  -1 -1 0  -0.8 -1 0  -0.6000000000000001 -1 0  -0.3999999999999999 -1 0  -0.2 -1 0  0 -1 0  0.2000000000000002 -1 0  0.3999999999999999 -1 0  0.6000000000000001 -1 0  0.7999999999999998 -1 0  1 -1 0  1.2 -1 0  1.4 -1 0  1.6 -1 0  1.8 -1 0  2 -1 0  -2 -0.8 0  -1.8 -0.8 0  -1.6 -0.8 0  -1.4 -0.8 0  -1.2 -0.8 0  -1 -0.8 0  -0.8 -0.8 0  -0.6000000000000001 -0.8 0  -0.3999999999999999 -0.8 0  -0.2 -0.8 0  0 -0.8 0  0.2000000000000002 -0.8 0  0.3999999999999999 -0.8 0  0.6000000000000001 -0.8 0  0.7999999999999998 -0.8 0  1 -0.8 0  1.2 -0.8 0  1.4 -0.8 0  1.6 -0.8 0  1.8 -0.8 0  2 -0.8 0  -2 -0.6000000000000001 0  -1.8 -0.6000000000000001 0  -1.6 -0.6000000000000001 0  -1.4 -0.6000000000000001 0  -1.2 -0.6000000000000001 0  -1 -0.6000000000000001 0  -0.8 -0.6000000000000001 0  -0.6000000000000001 -0.6000000000000001 0  -0.3999999999999999 -0.6000000000000001 0  -0.2 -0.6000000000000001 0  0 -0.6000000000000001 0  0.2000000000000002 -0.6000000000000001 0  0.3999999999999999 -0.6000000000000001 0  0.6000000000000001 -0.6000000000000001 0  0.7999999999999998 -0.6000000000000001 0  1 -0.6000000000000001 0  1.2 -0.6000000000000001 0  1.4 -0.6000000000000001 0  1.6 -0.6000000000000001 0  1.8 -0.6000000000000001 0  2 -0.6000000000000001 0  -2 -0.3999999999999999 0  -1.8 -0.3999999999999999 0  -1.6 -0.3999999999999999 0  -1.4 -0.3999999999999999 0  -1.2 -0.3999999999999999 0  -1 -0.3999999999999999 0  -0.8 -0.3999999999999999 0  -0.6000000000000001 -0.3999999999999999 0  -0.3999999999999999 -0.3999999999999999 0  -0.2 -0.3999999999999999 0  0 -0.3999999999999999 0  0.2000000000000002 -0.3999999999999999 0  0.3999999999999999 -0.3999999999999999 0  0.6000000000000001 -0.3999999999999999 0  0.7999999999999998 -0.3999999999999999 0  1 -0.3999999999999999 0  1.2 -0.3999999999999999 0  1.4 -0.3999999999999999 0  1.6 -0.3999999999999999 0  1.8 -0.3999999999999999 0  2 -0.3999999999999999 0  -2 -0.2 0  -1.8 -0.2 0  -1.6 -0.2 0  -1.4 -0.2 0  -1.2 -0.2 0  -1 -0.2 0  -0.8 -0.2 0  -0.6000000000000001 -0.2 0  -0.3999999999999999 -0.2 0  -0.2 -0.2 0  0 -0.2 0  0.2000000000000002 -0.2 0  0.3999999999999999 -0.2 0  0.6000000000000001 -0.2 0  0.7999999999999998 -0.2 0  1 -0.2 0  1.2 -0.2 0  1.4 -0.2 0  1.6 -0.2 0  1.8 -0.2 0  2 -0.2 0  -2 0 0  -1.8 0 0  -1.6 0 0  -1.4 0 0  -1.2 0 0  -1 0 0  -0.8 0 0  -0.6000000000000001 0 0  -0.3999999999999999 0 0  -0.2 0 0  0 0 0  0.2000000000000002 0 0  0.3999999999999999 0 0  0.6000000000000001 0 0  0.7999999999999998 0 0  1 0 0  1.2 0 0  1.4 0 0  1.6 0 0  1.8 0 0  2 0 0  -2 0.2000000000000002 0  -1.8 0.2000000000000002 0  -1.6 0.2000000000000002 0  -1.4 0.2000000000000002 0  -1.2 0.2000000000000002 0  -1 0.2000000000000002 0  -0.8 0.2000000000000002 0  -0.6000000000000001 0.2000000000000002 0  -0.3999999999999999 0.2000000000000002 0  -0.2 0.2000000000000002 0  0 0.2000000000000002 0  0.2000000000000002 0.2000000000000002 0  0.3999999999999999 0.2000000000000002 0  0.6000000000000001 0.2000000000000002 0  0.7999999999999998 0.2000000000000002 0  1 0.2000000000000002 0  1.2 0.2000000000000002 0  1.4 0.2000000000000002 0  1.6 0.2000000000000002 0  1.8 0.2000000000000002 0  2 0.2000000000000002 0  -2 0.3999999999999999 0  -1.8 0.3999999999999999 0  -1.6 0.3999999999999999 0  -1.4 0.3999999999999999 0  -1.2 0.3999999999999999 0  -1 0.3999999999999999 0  -0.8 0.3999999999999999 0  -0.6000000000000001 0.3999999999999999 0  -0.3999999999999999 0.3999999999999999 0  -0.2 0.3999999999999999 0  0 0.3999999999999999 0  0.2000000000000002 0.3999999999999999 0  0.3999999999999999 0.3999999999999999 0  0.6000000000000001 0.3999999999999999 0  0.7999999999999998 0.3999999999999999 0  1 0.3999999999999999 0  1.2 0.3999999999999999 0  1.4 0.3999999999999999 0  1.6 0.3999999999999999 0  1.8 0.3999999999999999 0  2 0.3999999999999999 0  -2 0.6000000000000001 0  -1.8 0.6000000000000001 0  -1.6 0.6000000000000001 0  -1.4 0.6000000000000001 0  -1.2 0.6000000000000001 0  -1 0.6000000000000001 0  -0.8 0.6000000000000001 0  -0.6000000000000001 0.6000000000000001 0  -0.3999999999999999 0.6000000000000001 0  -0.2 0.6000000000000001 0  0 0.6000000000000001 0  0.2000000000000002 0.6000000000000001 0  0.3999999999999999 0.6000000000000001 0  0.6000000000000001 0.6000000000000001 0  0.7999999999999998 0.6000000000000001 0  1 0.6000000000000001 0  1.2 0.6000000000000001 0  1.4 0.6000000000000001 0  1.6 0.6000000000000001 0  1.8 0.6000000000000001 0  2 0.6000000000000001 0  -2 0.7999999999999998 0  -1.8 0.7999999999999998 0  -1.6 0.7999999999999998 0  -1.4 0.7999999999999998 0  -1.2 0.7999999999999998 0  -1 0.7999999999999998 0  -0.8 0.7999999999999998 0  -0.6000000000000001 0.7999999999999998 0  -0.3999999999999999 0.7999999999999998 0  -0.2 0.7999999999999998 0  0 0.7999999999999998 0  0.2000000000000002 0.7999999999999998 0  0.3999999999999999 0.7999999999999998 0  0.6000000000000001 0.7999999999999998 0  0.7999999999999998 0.7999999999999998 0  1 0.7999999999999998 0  1.2 0.7999999999999998 0  1.4 0.7999999999999998 0  1.6 0.7999999999999998 0  1.8 0.7999999999999998 0  2 0.7999999999999998 0  -2 1 0  -1.8 1 0  -1.6 1 0  -1.4 1 0  -1.2 1 0  -1 1 0  -0.8 1 0  -0.6000000000000001 1 0  -0.3999999999999999 1 0  -0.2 1 0  0 1 0  0.2000000000000002 1 0  0.3999999999999999 1 0  0.6000000000000001 1 0  0.7999999999999998 1 0  1 1 0  1.2 1 0  1.4 1 0  1.6 1 0  1.8 1 0  2 1 0  -2 1.2 0  -1.8 1.2 0  -1.6 1.2 0  -1.4 1.2 0  -1.2 1.2 0  -1 1.2 0  -0.8 1.2 0  -0.6000000000000001 1.2 0  -0.3999999999999999 1.2 0  -0.2 1.2 0  0 1.2 0  0.2000000000000002 1.2 0  0.3999999999999999 1.2 0  0.6000000000000001 1.2 0  0.7999999999999998 1.2 0  1 1.2 0  1.2 1.2 0  1.4 1.2 0  1.6 1.2 0  1.8 1.2 0  2 1.2 0  -2 1.4 0  -1.8 1.4 0  -1.6 1.4 0  -1.4 1.4 0  -1.2 1.4 0  -1 1.4 0  -0.8 1.4 0  -0.6000000000000001 1.4 0  -0.3999999999999999 1.4 0  -0.2 1.4 0  0 1.4 0  0.2000000000000002 1.4 0  0.3999999999999999 1.4 0  0.6000000000000001 1.4 0  0.7999999999999998 1.4 0  1 1.4 0  1.2 1.4 0  1.4 1.4 0  1.6 1.4 0  1.8 1.4 0  2 1.4 0  -2 1.6 0  -1.8 1.6 0  -1.6 1.6 0  -1.4 1.6 0  -1.2 1.6 0  -1 1.6 0  -0.8 1.6 0  -0.6000000000000001 1.6 0  -0.3999999999999999 1.6 0  -0.2 1.6 0  0 1.6 0  0.2000000000000002 1.6 0  0.3999999999999999 1.6 0  0.6000000000000001 1.6 0  0.7999999999999998 1.6 0  1 1.6 0  1.2 1.6 0  1.4 1.6 0  1.6 1.6 0  1.8 1.6 0  2 1.6 0  -2 1.8 0  -1.8 1.8 0  -1.6 1.8 0  -1.4 1.8 0  -1.2 1.8 0  -1 1.8 0  -0.8 1.8 0  -0.6000000000000001 1.8 0  -0.3999999999999999 1.8 0  -0.2 1.8 0  0 1.8 0  0.2000000000000002 1.8 0  0.3999999999999999 1.8 0  0.6000000000000001 1.8 0  0.7999999999999998 1.8 0  1 1.8 0  1.2 1.8 0  1.4 1.8 0  1.6 1.8 0  1.8 1.8 0  2 1.8 0  -2 2 0  -1.8 2 0  -1.6 2 0  -1.4 2 0  -1.2 2 0  -1 2 0  -0.8 2 0  -0.6000000000000001 2 0  -0.3999999999999999 2 0  -0.2 2 0  0 2 0  0.2000000000000002 2 0  0.3999999999999999 2 0  0.6000000000000001 2 0  0.7999999999999998 2 0  1 2 0  1.2 2 0  1.4 2 0  1.6 2 0  1.8 2 0  2 2 0  </DataArray>
</Points>
<Cells>
[...]
<PointData  Scalars="f_8"> 
<DataArray  type="Float64"  Name="f_8"  format="ascii">4.3894190160251934e-01  4.3691151808794099e-01  4.3186241462746627e-01  4.2389303993169031e-01  4.1319846248212383e-01  4.0005626896087337e-01  3.8481281199729678e-01  3.6786920129087169e-01  3.4966698996302520e-01  3.3067380783618427e-01  3.1136932908536752e-01  2.9223199089186846e-01  2.7372684096711192e-01  2.5629481411535687e-01  2.4034364570446312e-01  2.2624054550658781e-01  2.1430670173766364e-01  2.0481368846548237e-01  1.9798194444259887e-01  1.9398173004171895e-01  1.9293743798681834e-01  4.3802264252249329e-01  4.3640141624521350e-01  4.3161876620097234e-01  4.2382931665002960e-01  4.1325995839506718e-01  4.0020632631342345e-01  3.8502507136346653e-01  3.6812328332185362e-01  3.4994612018943927e-01  3.3096351879826336e-01  3.1165672534133299e-01  2.9250525794848631e-01  2.7397478110336249e-01  2.5650623082790985e-01  2.4050638343067679e-01  2.2633991417703506e-01  2.1432284831524545e-01  2.0471716213386515e-01  1.9772613133325226e-01  1.9348981359205927e-01  1.9207972410448418e-01  4.3780659075270889e-01  4.3621588620418950e-01  4.3148990513123364e-01  4.2376373809898943e-01  4.1325451101772703e-01  4.0025311894148546e-01  3.8511404951689066e-01  3.6824355807048120e-01  3.5008666612409250e-01  3.3111354923065067e-01  3.1180589301359501e-01  2.9264375043787860e-01  2.7409334585157130e-01  2.5659615764216687e-01  2.4055948624633924e-01  2.2634859205876492e-01  2.1428038226528975e-01  2.0461855024427181e-01  1.9757004039209805e-01  1.9328274371848847e-01  1.9184445502453393e-01  4.3774030625216120e-01  4.3615527213670691e-01  4.3144445257412095e-01  4.2373931009963711e-01  4.1325343196006781e-01  4.0027479114905268e-01  3.8515567469669187e-01  3.6830080387849906e-01  3.5015423141097085e-01  3.3118562631330783e-01  3.1187654089213651e-01  2.9270719768674297e-01  2.7414424415759220e-01  2.5662980985151784e-01  2.4057207699338207e-01  2.2633745354115226e-01  2.1424432930574938e-01  2.0455831015550052e-01  1.9748876854857172e-01  1.9318652180086507e-01  1.9174244680999658e-01  4.3772305992119542e-01  4.3613975088926832e-01  4.3143388992238219e-01  4.2373611100247710e-01  4.1325891044720098e-01  4.0028912091416213e-01  3.8517798564367878e-01  3.6832936508550396e-01  3.5018667653415242e-01  3.3121919205029715e-01  3.1190830051665092e-01  2.9273427995131313e-01  2.7416403364511804e-01  2.5664012855614449e-01  2.4057134854479981e-01  2.2632485064113045e-01  2.1421990083522785e-01  2.0452307606705639e-01  1.9744475748270116e-01  1.9313670956993845e-01  1.9169054003360911e-01  4.3772216651166218e-01  4.3613944700341151e-01  4.3143528388936481e-01  4.2374006030201639e-01  4.1326590352135217e-01  4.0029921895128584e-01  3.8519082169641455e-01  3.6834419046689054e-01  3.5020244168717085e-01  3.3123464917627521e-01  3.1192211679542503e-01  2.9274515228132003e-01  2.7417079790127596e-01  2.5664185803965250e-01  2.4056743734130820e-01  2.2631507787887012e-01  2.1420447135252499e-01  2.0450263200292726e-01  1.9742035441409567e-01  1.9310975119234861e-01  1.9166266878472885e-01  4.3772541022198502e-01  4.3614288481287700e-01  4.3143926845301939e-01  4.2374485737940903e-01  4.1327164651628018e-01  4.0030588198819528e-01  3.8519821329964243e-01  3.6835196687238286e-01  3.5021013667847517e-01  3.3124171611706588e-01  3.1192797807392481e-01  2.9274925147089531e-01  2.7417265036010791e-01  2.5664109623700876e-01  2.4056384777502562e-01  2.2630862696800988e-01  2.1419531815508716e-01  2.0449112610651785e-01  1.9740701803779001e-01  1.9309524562102501e-01  1.9164774688823713e-01  4.3772859883553111e-01  4.3614612832223421e-01  4.3144265985643454e-01  4.2374845868018834e-01  4.1327547213027699e-01  4.0030988842918525e-01  3.8520229630118169e-01  3.6835596607702731e-01  3.5021384712648757e-01  3.3124490509440441e-01  3.1193040546483136e-01  2.9275069158791839e-01  2.7417291325058663e-01  2.5664004663651285e-01  2.4056142014518975e-01  2.2630483538206350e-01  2.1419026016094708e-01  2.0448498010438454e-01  1.9740003416779264e-01  1.9308773067485302e-01  1.9164004432246373e-01  4.3773074592358530e-01  4.3614828533495592e-01  4.3144484058837224e-01  4.2375066613008494e-01  4.1327769275884557e-01  4.0031208861885065e-01  3.8520442148894068e-01  3.6835794268438415e-01  3.5021558707496381e-01  3.3124631241429625e-01  3.1193138430484452e-01  2.9275115482371111e-01  2.7417279086751989e-01  2.5663929311379119e-01  2.4056002017888317e-01  2.2630280743697345e-01  2.1418765752209834e-01  2.0448188929738051e-01  1.9739657082463385e-01  1.9308403312879777e-01  1.9163626540931175e-01  4.3773198009857645e-01  4.3614951776149424e-01  4.3144606646046263e-01  4.2375187700259825e-01  4.1327887465225621e-01  4.0031322090793842e-01  3.8520547675002026e-01  3.6835888755525720e-01  3.5021638406001088e-01  3.3124692245964599e-01  3.1193176988699250e-01  2.9275128324586852e-01  2.7417263744297382e-01  2.5663884393224801e-01  2.4055927419502365e-01  2.2630177768376039e-01  2.1418637132792184e-01  2.0448038746941682e-01  1.9739490584486788e-01  1.9308226648843835e-01  1.9163446427637557e-01  4.3773269767108530e-01  4.3615023230681016e-01  4.3144677148489957e-01  4.2375256456483007e-01  4.1327953463823019e-01  4.0031384064019315e-01  3.8520604100546746e-01  3.6835937901499688e-01  3.5021678416273316e-01  3.3124721258315398e-01  3.1193193274560854e-01  2.9275130436836527e-01  2.7417250658757841e-01  2.5663855630174265e-01  2.4055883133410272e-01  2.2630118796976753e-01  2.1418565000159195e-01  2.0447955619093286e-01  1.9739399179923589e-01  1.9308130110001340e-01  1.9163348162283231e-01  4.3773330801734228e-01  4.3615084096955775e-01  4.3144737359145968e-01  4.2375315371651073e-01  4.1328010216448946e-01  4.0031437518783186e-01  3.8520652853430920e-01  3.6835980322180928e-01  3.5021712730462878e-01  3.3124745662652433e-01  3.1193206073156354e-01  2.9275130186363868e-01  2.7417236308201232e-01  2.5663826641923343e-01  2.4055839574150553e-01  2.2630061389518188e-01  2.1418495130681869e-01  2.0447875297976528e-01  1.9739310958080247e-01  1.9308036956195920e-01  1.9163253310021708e-01  4.3773422769364778e-01  4.3615176203966732e-01  4.3144829579262900e-01  4.2375407291809791e-01  4.1328100844868987e-01  4.0031525172194754e-01  3.8520735139214746e-01  3.6836054219449305e-01  3.5021774762626856e-01  3.3124792144162390e-01  3.1193233405808374e-01  2.9275135176286937e-01  2.7417216473410055e-01  2.5663780481854648e-01  2.4055766776432450e-01  2.2629962954821867e-01  2.1418373403353114e-01  2.0447733897761927e-01  1.9739154616192231e-01  1.9307871266723298e-01  1.9163084414749829e-01  4.3773590398123041e-01  4.3615345045499837e-01  4.3145001612804290e-01  4.2375583372744691e-01  4.1328280144221347e-01  4.0031704840484422e-01  3.8520910234698963e-01  3.6836217907043906e-01  3.5021918758631565e-01  3.3124907356864336e-01  3.1193310704975785e-01  2.9275166215849885e-01  2.7417194490524183e-01  2.5663701000727807e-01  2.4055628155285710e-01  2.2629766727865686e-01  2.1418124385745665e-01  2.0447440039561091e-01  1.9738826610804278e-01  1.9307521939552741e-01  1.9162727937360763e-01  4.3773863609050734e-01  4.3615623495268774e-01  4.3145294955881441e-01  4.2375898047950555e-01  4.1328617793478589e-01  4.0032061370452998e-01  3.8521275612667882e-01  3.6836576684103095e-01  3.5022251231398122e-01  3.3125191221086459e-01  3.1193523021244529e-01  2.9275285496431297e-01  2.7417202721974998e-01  2.5663585434112024e-01  2.4055382719999291e-01  2.2629392953546926e-01  2.1417631748794541e-01  2.0446845687517787e-01  1.9738154461245108e-01  1.9306801201493601e-01  1.9161991160697991e-01  4.3774180463986906e-01  4.3615959027433998e-01  4.3145683758423031e-01  4.2376365639676261e-01  4.1329176352555708e-01  4.0032707356159553e-01  3.8521989406680307e-01  3.6837324102381208e-01  3.5022986571569298e-01  3.3125861413303820e-01  3.1194072423713248e-01  2.9275660897171779e-01  2.7417358154347354e-01  2.5663486467687435e-01  2.4055009938707550e-01  2.2628744374684984e-01  2.1416723972356369e-01  2.0445713606671670e-01  1.9736849430244841e-01  1.9305387668565516e-01  1.9160541945512244e-01  4.3774177340357939e-01  4.3616015307261646e-01  4.3145907201450645e-01  4.2376837719507859e-01  4.1329941354171812e-01  4.0033767446192492e-01  3.8523305222981180e-01  3.6838819778849202e-01  3.5024557916717164e-01  3.3127386016630556e-01  3.1195420642483562e-01  2.9276706893422927e-01  2.7417990354915078e-01  2.5663616974708853e-01  2.4054582502380353e-01  2.2627740542928282e-01  2.1415166957721163e-01  2.0443669289105532e-01  1.9734423815336311e-01  1.9302720171818222e-01  1.9157794262158442e-01  4.3772688860614306e-01  4.3614707098839900e-01  4.3145093959979758e-01  4.2376748358482413e-01  4.1330695823915536e-01  4.0035373881174841e-01  3.8525670675229412e-01  3.6841768798094965e-01  3.5027854826234323e-01  3.3130758159647122e-01  3.1198580970396506e-01  2.9279375059868190e-01  2.7419912029571036e-01  2.5664581434197414e-01  2.4054438688246274e-01  2.2626411650881786e-01  2.1412663154028300e-01  2.0440097240090740e-01  1.9729990312304121e-01  1.9297725393922888e-01  1.9152608905690585e-01  4.3766469049245227e-01  4.3609085590674013e-01  4.3140991260341688e-01  4.2374721908467777e-01  4.1330956610559594e-01  4.0037849369971712e-01  3.8530075826196131e-01  3.6847670913747771e-01  3.5034728260555320e-01  3.3138028945628012e-01  3.1205662811097656e-01  2.9285698564790552e-01  2.7424949311208280e-01  2.5667868496115542e-01  2.4055598486261517e-01  2.2625181173871667e-01  2.1408928005417932e-01  2.0433936220986437e-01  1.9721728713151837e-01  1.9287985506429925e-01  1.9142322269073059e-01  4.3745427788242658e-01  4.3591173673366246e-01  4.3128695587192345e-01  4.2368658986511210e-01  4.1330805428489215e-01  4.0042831536656448e-01  3.8539202103972403e-01  3.6859868765257858e-01  3.5048909220188973e-01  3.3153125135030764e-01  3.1220646651726430e-01  2.9299592207255809e-01  2.7436827083037751e-01  2.5676855099552442e-01  2.4060867208408471e-01  2.2625960389092753e-01  2.1404532258915426e-01  2.0423853431181688e-01  1.9705823818219645e-01  1.9266935050848405e-01  1.9118496008681843e-01  4.3654567505420289e-01  4.3540591364262671e-01  4.3104410760163786e-01  4.2362194486517180e-01  4.1336798960078192e-01  4.0057684218456502e-01  3.8560318044424552e-01  3.6885231686824255e-01  3.5076850192779546e-01  3.3182196399466829e-01  3.1249550848985697e-01  2.9327135409617172e-01  2.7461873927760377e-01  2.5698268003568064e-01  2.4077409957524140e-01  2.2636138454750801e-01  2.1406325075096189e-01  2.0414261626578151e-01  1.9680096060366434e-01  1.9217234877559233e-01  1.9031583154951384e-01  </DataArray> 
</PointData> 
</Piece>
</UnstructuredGrid>
</VTKFile>