<?xml version="1.0"?>
<VTKFile type="UnstructuredGrid"  version="0.1"  >
<UnstructuredGrid>
<Piece  NumberOfPoints="441" NumberOfCells="800">
<Points>
<DataArray  type="Float64"  NumberOfComponents="3"  format="ascii">-2 -2 0  -1.8 -2 0  -1.6 -2 0  -1.4 -2 0  -1.2 -2 0  -1 -2 0  -0.8 -2 0  -0.6000000000000001 -2 0  -0.3999999999999999 -2 0  -0.2 -2 0  0 -2 0  0.2000000000000002 -2 0  0.3999999999999999 -2 0  0.6000000000000001 -2 0  0.7999999999999998 -2 0  1 -2 0  1.2 -2 0  1.4 -2 0  1.6 -2 0  1.8 -2 0  2 -2 0  -2 -1.8 0  -1.8 -1.8 0  -1.6 -1.8 0  -1.4 -1.8 0  -1.2 -1.8 0  -1 -1.8 0  -0.8 -1.8 0  -0.6000000000000001 -1.8 0  -0.3999999999999999 -1.8 0  -0.2 -1.8 0  0 -1.8 0  0.2000000000000002 -1.8 0  0.3999999999999999 -1.8 0  0.6000000000000001 -1.8 0  0.7999999999999998 -1.8 0  1 -1.8 0  1.2 -1.8 0  1.4 -1.8 0  1.6 -1.8 0  1.8 -1.8 0  2 -1.8 0  -2 -1.6 0  -1.8 -1.6 0  -1.6 -1.6 0  -1.4 -1.6 0  -1.2 -1.6 0  -1 -1.6 0  -0.8 -1.6 0  -0.6000000000000001 -1.6 0  -0.3999999999999999 -1.6 0  -0.2 -1.6 0  0 -1.6 0  0.2000000000000002 -1.6 0  0.3999999999999999 -1.6 0  0.6000000000000001 -1.6 0  0.7999999999999998 -1.6 0  1 -1.6 0  1.2 -1.6 0  1.4 -1.6 0  1.6 -1.6 0  1.8 -1.6 0  2 -1.6 0  -2 -1.4 0  -1.8 -1.4 0  -1.6 -1.4 0  -1.4 -1.4 0  -1.2 -1.4 0  -1 -1.4 0  -0.8 -1.4 0  -0.6000000000000001 -1.4 0  -0.3999999999999999 -1.4 0  -0.2 -1.4 0  0 -1.4 0  0.2000000000000002 -1.4 0  0.3999999999999999 -1.4 0  0.6000000000000001 -1.4 0  0.7999999999999998 -1.4 0  1 -1.4 0  1.2 -1.4 0  1.4 -1.4 0  1.6 -1.4 0  1.8 -1.4 0  2 -1.4 0  -2 -1.2 0  -1.8 -1.2 0  -1.6 -1.2 0  -1.4 -1.2 0  -1.2 -1.2 0  -1 -1.2 0  -0.8 -1.2 0  -0.6000000000000001 -1.2 0  -0.3999999999999999 -1.2 0  -0.2 -1.2 0  0 -1.2 0  0.2000000000000002 -1.2 0  0.3999999999999999 -1.2 0  0.6000000000000001 -1.2 0  0.7999999999999998 -1.2 0  1 -1.2 0  1.2 -1.2 0  1.4 -1.2 0  1.6 -1.2 0  1.8 -1.2 0  2 -1.2 0  -2 -1 0  -1.8 -1 0  -1.6 -1 0  -1.4 -1 0  -1.2 -1 0  -1 -1 0  -0.8 -1 0  -0.6000000000000001 -1 0  -0.3999999999999999 -1 0  -0.2 -1 0  0 -1 0  0.2000000000000002 -1 0  0.3999999999999999 -1 0  0.6000000000000001 -1 0  0.7999999999999998 -1 0  1 -1 0  1.2 -1 0  1.4 -1 0  1.6 -1 0  1.8 -1 0  2 -1 0  -2 -0.8 0  -1.8 -0.8 0  -1.6 -0.8 0  -1.4 -0.8 0  -1.2 -0.8 0  -1 -0.8 0  -0.8 -0.8 0  -0.6000000000000001 -0.8 0  -0.3999999999999999 -0.8 0  -0.2 -0.8 0  0 -0.8 0  0.2000000000000002 -0.8 0  0.3999999999999999 -0.8 0  0.6000000000000001 -0.8 0  0.7999999999999998 -0.8 0  1 -0.8 0  1.2 -0.8 0  1.4 -0.8 0  1.6 -0.8 0  1.8 -0.8 0  2 -0.8 0  -2 -0.6000000000000001 0  -1.8 -0.6000000000000001 0  -1.6 -0.6000000000000001 0  -1.4 -0.6000000000000001 0  -1.2 -0.6000000000000001 0  -1 -0.6000000000000001 0  -0.8 -0.6000000000000001 0  -0.6000000000000001 -0.6000000000000001 0  -0.3999999999999999 -0.6000000000000001 0  -0.2 -0.6000000000000001 0  0 -0.6000000000000001 0  0.2000000000000002 -0.6000000000000001 0  0.3999999999999999 -0.6000000000000001 0  0.6000000000000001 -0.6000000000000001 0  0.7999999999999998 -0.6000000000000001 0  1 -0.6000000000000001 0  1.2 -0.6000000000000001 0  1.4 -0.6000000000000001 0  1.6 -0.6000000000000001 0  1.8 -0.6000000000000001 0  2 -0.6000000000000001 0  -2 -0.3999999999999999 0  -1.8 -0.3999999999999999 0  -1.6 -0.3999999999999999 0  -1.4 -0.3999999999999999 0  -1.2 -0.3999999999999999 0  -1 -0.3999999999999999 0  -0.8 -0.3999999999999999 0  -0.6000000000000001 -0.3999999999999999 0  -0.3999999999999999 -0.3999999999999999 0  -0.2 -0.3999999999999999 0  0 -0.3999999999999999 0  0.2000000000000002 -0.3999999999999999 0  0.3999999999999999 -0.3999999999999999 0  0.6000000000000001 -0.3999999999999999 0  0.7999999999999998 -0.3999999999999999 0  1 -0.3999999999999999 0  1.2 -0.3999999999999999 0  1.4 -0.3999999999999999 0  1.6 -0.3999999999999999 0  1.8 -0.3999999999999999 0  2 -0.3999999999999999 0  -2 -0.2 0  -1.8 -0.2 0  -1.6 -0.2 0  -1.4 -0.2 0  -1.2 -0.2 0  -1 -0.2 0  -0.8 -0.2 0  -0.6000000000000001 -0.2 0  -0.3999999999999999 -0.2 0  -0.2 -0.2 0  0 -0.2 0  0.2000000000000002 -0.2 0  0.3999999999999999 -0.2 0  0.6000000000000001 -0.2 0  0.7999999999999998 -0.2 0  1 -0.2 0  1.2 -0.2 0  1.4 -0.2 0  1.6 -0.2 0  1.8 -0.2 0  2 -0.2 0  -2 0 0  -1.8 0 0  -1.6 0 0  -1.4 0 0  -1.2 0 0  -1 0 0  -0.8 0 0  -0.6000000000000001 0 0  -0.3999999999999999 0 0  -0.2 0 0  0 0 0  0.2000000000000002 0 0  0.3999999999999999 0 0  0.6000000000000001 0 0  0.7999999999999998 0 0  1 0 0  1.2 0 0  1.4 0 0  1.6 0 0  1.8 0 0  2 0 0  -2 0.2000000000000002 0  -1.8 0.2000000000000002 0  -1.6 0.2000000000000002 0  -1.4 0.2000000000000002 0  -1.2 0.2000000000000002 0  -1 0.2000000000000002 0  -0.8 0.2000000000000002 0  -0.6000000000000001 0.2000000000000002 0  -0.3999999999999999 0.2000000000000002 0  -0.2 0.2000000000000002 0  0 0.2000000000000002 0  0.2000000000000002 0.2000000000000002 0  0.3999999999999999 0.2000000000000002 0  0.6000000000000001 0.2000000000000002 0  0.7999999999999998 0.2000000000000002 0  1 0.2000000000000002 0  1.2 0.2000000000000002 0  1.4 0.2000000000000002 0  1.6 0.2000000000000002 0  1.8 0.2000000000000002 0  2 0.2000000000000002 0  -2 0.3999999999999999 0  -1.8 0.3999999999999999 0  -1.6 0.3999999999999999 0  -1.4 0.3999999999999999 0  -1.2 0.3999999999999999 0  -1 0.3999999999999999 0  -0.8 0.3999999999999999 0  -0.6000000000000001 0.3999999999999999 0  -0.3999999999999999 0.3999999999999999 0  -0.2 0.3999999999999999 0  0 0.3999999999999999 0  0.2000000000000002 0.3999999999999999 0  0.3999999999999999 0.3999999999999999 0  0.6000000000000001 0.3999999999999999 0  0.7999999999999998 0.3999999999999999 0  1 0.3999999999999999 0  1.2 0.3999999999999999 0  1.4 0.3999999999999999 0  1.6 0.3999999999999999 0  1.8 0.3999999999999999 0  2 0.3999999999999999 0  -2 0.6000000000000001 0  -1.8 0.6000000000000001 0  -1.6 0.6000000000000001 0  -1.4 0.6000000000000001 0  -1.2 0.6000000000000001 0  -1 0.6000000000000001 0  -0.8 0.6000000000000001 0  -0.6000000000000001 0.6000000000000001 0  -0.3999999999999999 0.6000000000000001 0  -0.2 0.6000000000000001 0  0 0.6000000000000001 0  0.2000000000000002 0.6000000000000001 0  0.3999999999999999 0.6000000000000001 0  0.6000000000000001 0.6000000000000001 0  0.7999999999999998 0.6000000000000001 0  1 0.6000000000000001 0  1.2 0.6000000000000001 0  1.4 0.6000000000000001 0  1.6 0.6000000000000001 0  1.8 0.6000000000000001 0  2 0.6000000000000001 0  -2 0.7999999999999998 0  -1.8 0.7999999999999998 0  -1.6 0.7999999999999998 0  -1.4 0.7999999999999998 0  -1.2 0.7999999999999998 0  -1 0.7999999999999998 0  -0.8 0.7999999999999998 0  -0.6000000000000001 0.7999999999999998 0  -0.3999999999999999 0.7999999999999998 0  -0.2 0.7999999999999998 0  0 0.7999999999999998 0  0.2000000000000002 0.7999999999999998 0  0.3999999999999999 0.7999999999999998 0  0.6000000000000001 0.7999999999999998 0  0.7999999999999998 0.7999999999999998 0  1 0.7999999999999998 0  1.2 0.7999999999999998 0  1.4 0.7999999999999998 0  1.6 0.7999999999999998 0  1.8 0.7999999999999998 0  2 0.7999999999999998 0  -2 1 0  -1.8 1 0  -1.6 1 0  -1.4 1 0  -1.2 1 0  -1 1 0  -0.8 1 0  -0.6000000000000001 1 0  -0.3999999999999999 1 0  -0.2 1 0  0 1 0  0.2000000000000002 1 0  0.3999999999999999 1 0  0.6000000000000001 1 0  0.7999999999999998 1 0  1 1 0  1.2 1 0  1.4 1 0  1.6 1 0  1.8 1 0  2 1 0  -2 1.2 0  -1.8 1.2 0  -1.6 1.2 0  -1.4 1.2 0  -1.2 1.2 0  -1 1.2 0  -0.8 1.2 0  -0.6000000000000001 1.2 0  -0.3999999999999999 1.2 0  -0.2 1.2 0  0 1.2 0  0.2000000000000002 1.2 0  0.3999999999999999 1.2 0  0.6000000000000001 1.2 0  0.7999999999999998 1.2 0  1 1.2 0  1.2 1.2 0  1.4 1.2 0  1.6 1.2 0  1.8 1.2 0  2 1.2 0  -2 1.4 0  -1.8 1.4 0  -1.6 1.4 0  -1.4 1.4 0  -1.2 1.4 0  -1 1.4 0  -0.8 1.4 0  -0.6000000000000001 1.4 0  -0.3999999999999999 1.4 0  -0.2 1.4 0  0 1.4 0  0.2000000000000002 1.4 0  0.3999999999999999 1.4 0  0.6000000000000001 1.4 0  0.7999999999999998 1.4 0  1 1.4 0  1.2 1.4 0  1.4 1.4 0  1.6 1.4 0  1.8 1.4 0  2 1.4 0  -2 1.6 0  -1.8 1.6 0  -1.6 1.6 0  -1.4 1.6 0  -1.2 1.6 0  -1 1.6 0  -0.8 1.6 0  -0.6000000000000001 1.6 0  -0.3999999999999999 1.6 0  -0.2 1.6 0  0 1.6 0  0.2000000000000002 1.6 0  0.3999999999999999 1.6 0  0.6000000000000001 1.6 0  0.7999999999999998 1.6 0  1 1.6 0  1.2 1.6 0  1.4 1.6 0  1.6 1.6 0  1.8 1.6 0  2 1.6 0  -2 1.8 0  -1.8 1.8 0  -1.6 1.8 0  -1.4 1.8 0  -1.2 1.8 0  -1 1.8 0  -0.8 1.8 0  -0.6000000000000001 1.8 0  -0.3999999999999999 1.8 0  -0.2 1.8 0  0 1.8 0  0.2000000000000002 1.8 0  0.3999999999999999 1.8 0  0.6000000000000001 1.8 0  0.7999999999999998 1.8 0  1 1.8 0  1.2 1.8 0  1.4 1.8 0  1.6 1.8 0  1.8 1.8 0  2 1.8 0  -2 2 0  -1.8 2 0  -1.6 2 0  -1.4 2 0  -1.2 2 0  -1 2 0  -0.8 2 0  -0.6000000000000001 2 0  -0.3999999999999999 2 0  -0.2 2 0  0 2 0  0.2000000000000002 2 0  0.3999999999999999 2 0  0.6000000000000001 2 0  0.7999999999999998 2 0  1 2 0  1.2 2 0  1.4 2 0  1.6 2 0  1.8 2 0  2 2 0  </DataArray>
</Points>
<Cells>
[...]
<PointData  Scalars="f_8"> 
<DataArray  type="Float64"  Name="f_8"  format="ascii">2.4195076647832164e-01  2.0887571885567702e-01  1.4659523526422819e-01  8.5646362969307471e-02  4.2800612966330649e-02  1.8819201317784730e-02  7.4869114514173199e-03  2.7684075041106543e-03  9.7554849382952948e-04  3.3488774413468217e-04  1.1395120297723976e-04  3.8875437974038326e-05  1.3368313122072507e-05  4.6354377408786500e-06  1.6166564186802257e-06  5.6510445482174706e-07  1.9739422047728841e-07  6.8922738978230824e-08  2.4484537815725443e-08  9.8555154702096777e-09  6.2597197607810406e-09  2.3671130688950687e-01  2.1122196986837008e-01  1.5113543777658797e-01  8.7961545858467161e-02  4.2290920003980478e-02  1.6995728007322200e-02  5.7101980044358420e-03  1.5547911415186820e-03  2.9508561056638234e-04  -3.4451282209640164e-07  -3.6961526382883944e-05  -2.4806171626491515e-05  -1.2262603115698192e-05  -5.3229970720961671e-06  -2.1493048411405837e-06  -8.2890126628412106e-07  -3.0973928570157163e-07  -1.1324757589923008e-07  -4.1200749547549469e-08  -1.6220745983999784e-08  -1.0021524543967959e-08  2.3672453248356784e-01  2.1166592758500594e-01  1.5181012495429058e-01  8.8107318971576143e-02  4.1857336749723896e-02  1.6454846377312843e-02  5.3907842939794805e-03  1.4736561752742119e-03  3.3653084793973305e-04  6.7814932920866615e-05  1.6693507865762073e-05  7.7476778264880470e-06  4.7560401172031105e-06  2.7300864819566834e-06  1.3967833329382377e-06  6.5001279449538209e-07  2.8159083257409349e-07  1.1572724670500093e-07  4.6211856652868807e-08  1.9567909786956918e-08  1.2764788575316025e-08  2.3672878537030090e-01  2.1168421956280312e-01  1.5182562012642720e-01  8.8066300719670171e-02  4.1792877278239431e-02  1.6445162886539220e-02  5.4472134194237659e-03  1.5489839868965771e-03  3.9084869211355983e-04  9.3002240840439566e-05  2.2604547030912056e-05  5.6278277738745238e-06  1.0984888830021453e-06  -1.0839553698425202e-07  -3.0947090393983978e-07  -2.3964394705871126e-07  -1.4033074895133195e-07  -7.1343349953139019e-08  -3.3563441154363667e-08  -1.6255252130711467e-08  -1.1619091479903130e-08  2.3672918440093771e-01  2.1168388437858096e-01  1.5182235866293944e-01  8.8060812900555299e-02  4.1793337372430232e-02  1.6455273105104203e-02  5.4579828250700731e-03  1.5506807509880903e-03  3.8367292544954582e-04  8.3273481486640082e-05  1.5210628051764663e-05  1.7194714899247029e-06  -3.0857129631951184e-07  -2.9643353459303712e-07  -1.0485265209737269e-07  -5.3186878734273002e-09  2.2707485106937796e-08  2.1653047441751029e-08  1.4326207139132898e-08  8.8219952577474469e-09  7.2385321853595476e-09  2.3672890669252838e-01  2.1168368659740758e-01  1.5182216958826508e-01  8.8060813339448235e-02  4.1793764141277903e-02  1.6455319422139673e-02  5.4564843767978414e-03  1.5480869997966747e-03  3.8171894219618996e-04  8.2959970793397035e-05  1.6133595054887735e-05  2.9522731221397090e-06  6.3246175212920528e-07  2.2262598412303042e-07  1.0678475127687109e-07  4.7730956769602335e-08  1.6326348145265626e-08  2.6895774423194623e-09  -1.6764056931865134e-09  -2.4866320625617600e-09  -2.6993525567068666e-09  2.3672895758234108e-01  2.1168372250647594e-01  1.5182222342992654e-01  8.8060917289598528e-02  4.1793880658090421e-02  1.6455364456098541e-02  5.4565154060074918e-03  1.5483146665842080e-03  3.8220631340000273e-04  8.3489365269557669e-05  1.6449103825082122e-05  2.9937862194608898e-06  5.0920831157275056e-07  6.7175783771455677e-08  -9.2543000903604534e-09  -1.6679382479177473e-08  -1.1179062658122035e-08  -5.4376046316150400e-09  -1.9451861968340737e-09  -3.3381243540430696e-10  1.6264283358405527e-10  2.3672895485845796e-01  2.1168372475130115e-01  1.5182222426870576e-01  8.8060908655889739e-02  4.1793857676768000e-02  1.6455334462784264e-02  5.4564964166808616e-03  1.5483063906355408e-03  3.8217558491500001e-04  8.3409857666822789e-05  1.6340759113478650e-05  2.9032042589007048e-06  4.6462390891031031e-07  6.3833221220546013e-08  7.7327378225740166e-09  2.8312708034259734e-09  2.8178383348078761e-09  2.2124042588546484e-09  1.3285533536035490e-09  6.7823857072966074e-10  4.6932093073545207e-10  2.3672895331925942e-01  2.1168372172657565e-01  1.5182222074658136e-01  8.8060905802717623e-02  4.1793856685216679e-02  1.6455336250243709e-02  5.4565000243826630e-03  1.5483085913614658e-03  3.8217531924920715e-04  8.3412081020482553e-05  1.6351637032226597e-05  2.9221489852080538e-06  4.8435241837848476e-07  7.7388411342574124e-08  1.3283340066474209e-08  2.7567649201206587e-09  4.5566651231054758e-10  -2.1677477311128666e-10  -3.5043376830390962e-10  -3.0894609112346658e-10  -3.0102174412652170e-10  2.3672895402071820e-01  2.1168372279594175e-01  1.5182222204462284e-01  8.8060907207624370e-02  4.1793858087919550e-02  1.6455337451904285e-02  5.4565007698928634e-03  1.5483089251510673e-03  3.8217576500789113e-04  8.3412948811200798e-05  1.6352201121402185e-05  2.9211717725005979e-06  4.8150705102634444e-07  7.3696928876338373e-08  1.0155759485820936e-08  9.4062779483394358e-10  -1.4947756880811265e-10  -1.1654531788806773e-10  -3.8377498680684048e-12  5.7997775685520241e-11  8.5956797397857084e-11  2.3672895390004442e-01  2.1168372259053128e-01  1.5182222177208934e-01  8.8060906868374589e-02  4.1793857671432164e-02  1.6455336966087017e-02  5.4565002678440781e-03  1.5483084868914609e-03  3.8217541572345599e-04  8.3412610554500018e-05  1.6351805237417899e-05  2.9208234189691371e-06  4.8143966442313314e-07  7.4030892775620832e-08  1.0763930575444770e-08  1.5636563878418024e-09  2.9379278918495836e-10  1.0052760049417558e-10  4.2963413807543757e-11  1.1087529815234944e-11  -1.3638927542545895e-12  2.3672895359643142e-01  2.1168372233231217e-01  1.5182222157106329e-01  8.8060906773808456e-02  4.1793857715402470e-02  1.6455337130960798e-02  5.4565004991182957e-03  1.5483087247016754e-03  3.8217561841646572e-04  8.3412768084098270e-05  1.6351937867933539e-05  2.9209539395935757e-06  4.8155834829345983e-07  7.4097161858229644e-08  1.0747765277263739e-08  1.4776994864146334e-09  1.8282908544629515e-10  7.6619348828054029e-12  -1.2247029304576713e-11  -1.0336790443823704e-11  -9.3274242940205290e-12  2.3672895484097817e-01  2.1168372351291431e-01  1.5182222254888592e-01  8.8060907219393747e-02  4.1793857507139029e-02  1.6455336478362427e-02  5.4564997503729236e-03  1.5483081300959965e-03  3.8217525175908559e-04  8.3412585403114093e-05  1.6351861939730358e-05  2.9209221296781477e-06  4.8153576351797864e-07  7.4074143186292954e-08  1.0730108053566432e-08  1.4734313535229607e-09  1.9291233346699986e-10  2.5701179094465675e-11  5.7950212730179004e-12  3.8667181624928458e-12  4.3493062752231118e-12  2.3672894990154084e-01  2.1168371875001019e-01  1.5182221926969156e-01  8.8060907366982619e-02  4.1793861158873881e-02  1.6455341734243133e-02  5.4565044313268883e-03  1.5483111435354515e-03  3.8217666900628296e-04  8.3413001155563407e-05  1.6351838329396428e-05  2.9207888108507221e-06  4.8142402115593861e-07  7.4010045878306770e-08  1.0702162633560512e-08  1.4644433011800848e-09  1.9050345060106102e-10  2.3785760022712006e-11  2.7512009733244035e-12  -1.4459138665715222e-13  -7.6879510478733810e-13  2.3672898348849433e-01  2.1168374592246361e-01  1.5182222967761760e-01  8.8060892818386152e-02  4.1793828214122107e-02  1.6455306336296903e-02  5.4564789537553740e-03  1.5482984486266573e-03  3.8217310359811921e-04  8.3413696680592701e-05  1.6353565141731773e-05  2.9221958415501718e-06  4.8225966563605486e-07  7.4418986992649149e-08  1.0872923198090991e-08  1.5247395135990458e-09  2.0712586626356729e-10  2.6118101715703994e-11  1.8201282529965971e-12  -9.9019567602072178e-13  -9.6573535772450642e-13  2.3672866989911281e-01  2.1168354381053842e-01  1.5182220579981809e-01  8.8061046660502629e-02  4.1794061268536659e-02  1.6455501947481126e-02  5.4565829174008096e-03  1.5483243671186205e-03  3.8216011758166764e-04  8.3392245835138166e-05  1.6337010062442459e-05  2.9126615399290075e-06  4.7774291174803641e-07  7.2609958664964929e-08  1.0270127565621927e-08  1.3745720243787133e-09  1.9563061669295538e-10  4.3934886129506111e-11  1.9032082255008998e-11  1.1187345546419570e-11  7.7957260043331384e-12  2.3673108683963787e-01  2.1168479572267973e-01  1.5182197117681190e-01  8.8059802845963986e-02  4.1792739980659445e-02  1.6454755672540500e-02  5.4564638606288624e-03  1.5485382616182155e-03  3.8242681835686616e-04  8.3584706297466061e-05  1.6442478511639593e-05  2.9597434001393447e-06  4.9501096097259719e-07  7.7491415123433756e-08  1.0979246857884267e-08  1.0640869471214155e-09  -1.7427135289204650e-10  -1.9766593700502435e-10  -1.1497473654798503e-10  -6.3598743923787783e-11  -4.2180393075156271e-11  2.3672232950955419e-01  2.1168319856404641e-01  1.5182789992827150e-01  8.8067840748850254e-02  4.1797246754360973e-02  1.6454294784918666e-02  5.4532939477516650e-03  1.5452839864918424e-03  3.8026228649592819e-04  8.2490714921572454e-05  1.6005983916805175e-05  2.8285168615471919e-06  4.7449477731838161e-07  8.5672492451452294e-08  2.1210865975408781e-08  7.7441857457260109e-09  3.3591306902171189e-09  1.4805451827687452e-09  6.4817227075014655e-10  3.0641690037686918e-10  1.9295091532176972e-10  2.3662034859661954e-01  2.1159803308867595e-01  1.5176328069246636e-01  8.8041493350589195e-02  4.1816540953839666e-02  1.6496286984339817e-02  5.4907142271498621e-03  1.5674377133094569e-03  3.8977680041088085e-04  8.5291325926944159e-05  1.6260790833051718e-05  2.4698390608564472e-06  1.3530352566321735e-07  -1.2137481591433636e-07  -8.4437513352025899e-08  -4.0838683153490927e-08  -1.7485081532610413e-08  -7.0538065795950187e-09  -2.7929973919763611e-09  -1.1995404464779608e-09  -7.3105763435892631e-10  2.3699595065393778e-01  2.1216859367056026e-01  1.5206238294500488e-01  8.7811473193411177e-02  4.1356197197914203e-02  1.6145677828310216e-02  5.3360333665577429e-03  1.5378116357278562e-03  4.0515181383736487e-04  1.0529852345951753e-04  2.9712903393163075e-05  9.6349130755207905e-06  3.4952273353495652e-06  1.3317567035413397e-06  5.0999058952273320e-07  1.9264954054341186e-07  7.1443072346063235e-08  2.6059942096516530e-08  9.4856753808989327e-09  3.7510018513304999e-09  2.2327193914307066e-09  2.3199328831636118e-01  2.1451508303088362e-01  1.5683275189372428e-01  9.0251708540670911e-02  4.0644907739797703e-02  1.4022237964263468e-02  3.3980611840420676e-03  3.1837883943090187e-04  -2.1423929274986509e-04  -1.6888685400246427e-04  -8.1431980662247479e-05  -3.3058980903768395e-05  -1.2400411840102533e-05  -4.4810000236686602e-06  -1.5914841895923082e-06  -5.6034324308105206e-07  -1.9613048307276897e-07  -6.8299164601259450e-08  -2.3789093190402738e-08  -8.7559023258996861e-09  -4.9529231715213991e-09  </DataArray> 
</PointData> 
</Piece>
</UnstructuredGrid>
</VTKFile>