<?xml version="1.0"?>
<VTKFile type="UnstructuredGrid"  version="0.1"  >
<UnstructuredGrid>
<Piece  NumberOfPoints="441" NumberOfCells="800">
<Points>
<DataArray  type="Float64"  NumberOfComponents="3"  format="ascii">-2 -2 0  -1.8 -2 0  -1.6 -2 0  -1.4 -2 0  -1.2 -2 0  -1 -2 0  -0.8 -2 0  -0.6000000000000001 -2 0  -0.3999999999999999 -2 0  -0.2 -2 0  0 -2 0  0.2000000000000002 -2 0  0.3999999999999999 -2 0  0.6000000000000001 -2 0  0.7999999999999998 -2 0  1 -2 0  1.2 -2 0  1.4 -2 0  1.6 -2 0  1.8 -2 0  2 -2 0  -2 -1.8 0  -1.8 -1.8 0  -1.6 -1.8 0  -1.4 -1.8 0  -1.2 -1.8 0  -1 -1.8 0  -0.8 -1.8 0  -0.6000000000000001 -1.8 0  -0.3999999999999999 -1.8 0  -0.2 -1.8 0  0 -1.8 0  0.2000000000000002 -1.8 0  0.3999999999999999 -1.8 0  0.6000000000000001 -1.8 0  0.7999999999999998 -1.8 0  1 -1.8 0  1.2 -1.8 0  1.4 -1.8 0  1.6 -1.8 0  1.8 -1.8 0  2 -1.8 0  -2 -1.6 0  -1.8 -1.6 0  -1.6 -1.6 0  -1.4 -1.6 0  -1.2 -1.6 0  -1 -1.6 0  -0.8 -1.6 0  -0.6000000000000001 -1.6 0  -0.3999999999999999 -1.6 0  -0.2 -1.6 0  0 -1.6 0  0.2000000000000002 -1.6 0  0.3999999999999999 -1.6 0  0.6000000000000001 -1.6 0  0.7999999999999998 -1.6 0  1 -1.6 0  1.2 -1.6 0  1.4 -1.6 0  1.6 -1.6 0  1.8 -1.6 0  2 -1.6 0  -2 -1.4 0  -1.8 -1.4 0  -1.6 -1.4 0  -1.4 -1.4 0  -1.2 -1.4 0  -1 -1.4 0  -0.8 -1.4 0  -0.6000000000000001 -1.4 0  -0.3999999999999999 -1.4 0  -0.2 -1.4 0  0 -1.4 0  0.2000000000000002 -1.4 0  0.3999999999999999 -1.4 0  0.6000000000000001 -1.4 0  0.7999999999999998 -1.4 0  1 -1.4 0  1.2 -1.4 0  1.4 -1.4 0  1.6 -1.4 0  1.8 -1.4 0  2 -1.4 0  -2 -1.2 0  -1.8 -1.2 0  -1.6 -1.2 0  -1.4 -1.2 0  -1.2 -1.2 0  -1 -1.2 0  -0.8 -1.2 0  -0.6000000000000001 -1.2 0  -0.3999999999999999 -1.2 0  -0.2 -1.2 0  0 -1.2 0  0.2000000000000002 -1.2 0  0.3999999999999999 -1.2 0  0.6000000000000001 -1.2 0  0.7999999999999998 -1.2 0  1 -1.2 0  1.2 -1.2 0  1.4 -1.2 0  1.6 -1.2 0  1.8 -1.2 0  2 -1.2 0  -2 -1 0  -1.8 -1 0  -1.6 -1 0  -1.4 -1 0  -1.2 -1 0  -1 -1 0  -0.8 -1 0  -0.6000000000000001 -1 0  -0.3999999999999999 -1 0  -0.2 -1 0  0 -1 0  0.2000000000000002 -1 0  0.3999999999999999 -1 0  0.6000000000000001 -1 0  0.7999999999999998 -1 0  1 -1 0  1.2 -1 0  1.4 -1 0  1.6 -1 0  1.8 -1 0  2 -1 0  -2 -0.8 0  -1.8 -0.8 0  -1.6 -0.8 0  -1.4 -0.8 0  -1.2 -0.8 0  -1 -0.8 0  -0.8 -0.8 0  -0.6000000000000001 -0.8 0  -0.3999999999999999 -0.8 0  -0.2 -0.8 0  0 -0.8 0  0.2000000000000002 -0.8 0  0.3999999999999999 -0.8 0  0.6000000000000001 -0.8 0  0.7999999999999998 -0.8 0  1 -0.8 0  1.2 -0.8 0  1.4 -0.8 0  1.6 -0.8 0  1.8 -0.8 0  2 -0.8 0  -2 -0.6000000000000001 0  -1.8 -0.6000000000000001 0  -1.6 -0.6000000000000001 0  -1.4 -0.6000000000000001 0  -1.2 -0.6000000000000001 0  -1 -0.6000000000000001 0  -0.8 -0.6000000000000001 0  -0.6000000000000001 -0.6000000000000001 0  -0.3999999999999999 -0.6000000000000001 0  -0.2 -0.6000000000000001 0  0 -0.6000000000000001 0  0.2000000000000002 -0.6000000000000001 0  0.3999999999999999 -0.6000000000000001 0  0.6000000000000001 -0.6000000000000001 0  0.7999999999999998 -0.6000000000000001 0  1 -0.6000000000000001 0  1.2 -0.6000000000000001 0  1.4 -0.6000000000000001 0  1.6 -0.6000000000000001 0  1.8 -0.6000000000000001 0  2 -0.6000000000000001 0  -2 -0.3999999999999999 0  -1.8 -0.3999999999999999 0  -1.6 -0.3999999999999999 0  -1.4 -0.3999999999999999 0  -1.2 -0.3999999999999999 0  -1 -0.3999999999999999 0  -0.8 -0.3999999999999999 0  -0.6000000000000001 -0.3999999999999999 0  -0.3999999999999999 -0.3999999999999999 0  -0.2 -0.3999999999999999 0  0 -0.3999999999999999 0  0.2000000000000002 -0.3999999999999999 0  0.3999999999999999 -0.3999999999999999 0  0.6000000000000001 -0.3999999999999999 0  0.7999999999999998 -0.3999999999999999 0  1 -0.3999999999999999 0  1.2 -0.3999999999999999 0  1.4 -0.3999999999999999 0  1.6 -0.3999999999999999 0  1.8 -0.3999999999999999 0  2 -0.3999999999999999 0  -2 -0.2 0  -1.8 -0.2 0  -1.6 -0.2 0  -1.4 -0.2 0  -1.2 -0.2 0  -1 -0.2 0  -0.8 -0.2 0  -0.6000000000000001 -0.2 0  -0.3999999999999999 -0.2 0  -0.2 -0.2 0  0 -0.2 0  0.2000000000000002 -0.2 0  0.3999999999999999 -0.2 0  0.6000000000000001 -0.2 0  0.7999999999999998 -0.2 0  1 -0.2 0  1.2 -0.2 0  1.4 -0.2 0  1.6 -0.2 0  1.8 -0.2 0  2 -0.2 0  -2 0 0  -1.8 0 0  -1.6 0 0  -1.4 0 0  -1.2 0 0  -1 0 0  -0.8 0 0  -0.6000000000000001 0 0  -0.3999999999999999 0 0  -0.2 0 0  0 0 0  0.2000000000000002 0 0  0.3999999999999999 0 0  0.6000000000000001 0 0  0.7999999999999998 0 0  1 0 0  1.2 0 0  1.4 0 0  1.6 0 0  1.8 0 0  2 0 0  -2 0.2000000000000002 0  -1.8 0.2000000000000002 0  -1.6 0.2000000000000002 0  -1.4 0.2000000000000002 0  -1.2 0.2000000000000002 0  -1 0.2000000000000002 0  -0.8 0.2000000000000002 0  -0.6000000000000001 0.2000000000000002 0  -0.3999999999999999 0.2000000000000002 0  -0.2 0.2000000000000002 0  0 0.2000000000000002 0  0.2000000000000002 0.2000000000000002 0  0.3999999999999999 0.2000000000000002 0  0.6000000000000001 0.2000000000000002 0  0.7999999999999998 0.2000000000000002 0  1 0.2000000000000002 0  1.2 0.2000000000000002 0  1.4 0.2000000000000002 0  1.6 0.2000000000000002 0  1.8 0.2000000000000002 0  2 0.2000000000000002 0  -2 0.3999999999999999 0  -1.8 0.3999999999999999 0  -1.6 0.3999999999999999 0  -1.4 0.3999999999999999 0  -1.2 0.3999999999999999 0  -1 0.3999999999999999 0  -0.8 0.3999999999999999 0  -0.6000000000000001 0.3999999999999999 0  -0.3999999999999999 0.3999999999999999 0  -0.2 0.3999999999999999 0  0 0.3999999999999999 0  0.2000000000000002 0.3999999999999999 0  0.3999999999999999 0.3999999999999999 0  0.6000000000000001 0.3999999999999999 0  0.7999999999999998 0.3999999999999999 0  1 0.3999999999999999 0  1.2 0.3999999999999999 0  1.4 0.3999999999999999 0  1.6 0.3999999999999999 0  1.8 0.3999999999999999 0  2 0.3999999999999999 0  -2 0.6000000000000001 0  -1.8 0.6000000000000001 0  -1.6 0.6000000000000001 0  -1.4 0.6000000000000001 0  -1.2 0.6000000000000001 0  -1 0.6000000000000001 0  -0.8 0.6000000000000001 0  -0.6000000000000001 0.6000000000000001 0  -0.3999999999999999 0.6000000000000001 0  -0.2 0.6000000000000001 0  0 0.6000000000000001 0  0.2000000000000002 0.6000000000000001 0  0.3999999999999999 0.6000000000000001 0  0.6000000000000001 0.6000000000000001 0  0.7999999999999998 0.6000000000000001 0  1 0.6000000000000001 0  1.2 0.6000000000000001 0  1.4 0.6000000000000001 0  1.6 0.6000000000000001 0  1.8 0.6000000000000001 0  2 0.6000000000000001 0  -2 0.7999999999999998 0  -1.8 0.7999999999999998 0  -1.6 0.7999999999999998 0  -1.4 0.7999999999999998 0  -1.2 0.7999999999999998 0  -1 0.7999999999999998 0  -0.8 0.7999999999999998 0  -0.6000000000000001 0.7999999999999998 0  -0.3999999999999999 0.7999999999999998 0  -0.2 0.7999999999999998 0  0 0.7999999999999998 0  0.2000000000000002 0.7999999999999998 0  0.3999999999999999 0.7999999999999998 0  0.6000000000000001 0.7999999999999998 0  0.7999999999999998 0.7999999999999998 0  1 0.7999999999999998 0  1.2 0.7999999999999998 0  1.4 0.7999999999999998 0  1.6 0.7999999999999998 0  1.8 0.7999999999999998 0  2 0.7999999999999998 0  -2 1 0  -1.8 1 0  -1.6 1 0  -1.4 1 0  -1.2 1 0  -1 1 0  -0.8 1 0  -0.6000000000000001 1 0  -0.3999999999999999 1 0  -0.2 1 0  0 1 0  0.2000000000000002 1 0  0.3999999999999999 1 0  0.6000000000000001 1 0  0.7999999999999998 1 0  1 1 0  1.2 1 0  1.4 1 0  1.6 1 0  1.8 1 0  2 1 0  -2 1.2 0  -1.8 1.2 0  -1.6 1.2 0  -1.4 1.2 0  -1.2 1.2 0  -1 1.2 0  -0.8 1.2 0  -0.6000000000000001 1.2 0  -0.3999999999999999 1.2 0  -0.2 1.2 0  0 1.2 0  0.2000000000000002 1.2 0  0.3999999999999999 1.2 0  0.6000000000000001 1.2 0  0.7999999999999998 1.2 0  1 1.2 0  1.2 1.2 0  1.4 1.2 0  1.6 1.2 0  1.8 1.2 0  2 1.2 0  -2 1.4 0  -1.8 1.4 0  -1.6 1.4 0  -1.4 1.4 0  -1.2 1.4 0  -1 1.4 0  -0.8 1.4 0  -0.6000000000000001 1.4 0  -0.3999999999999999 1.4 0  -0.2 1.4 0  0 1.4 0  0.2000000000000002 1.4 0  0.3999999999999999 1.4 0  0.6000000000000001 1.4 0  0.7999999999999998 1.4 0  1 1.4 0  1.2 1.4 0  1.4 1.4 0  1.6 1.4 0  1.8 1.4 0  2 1.4 0  -2 1.6 0  -1.8 1.6 0  -1.6 1.6 0  -1.4 1.6 0  -1.2 1.6 0  -1 1.6 0  -0.8 1.6 0  -0.6000000000000001 1.6 0  -0.3999999999999999 1.6 0  -0.2 1.6 0  0 1.6 0  0.2000000000000002 1.6 0  0.3999999999999999 1.6 0  0.6000000000000001 1.6 0  0.7999999999999998 1.6 0  1 1.6 0  1.2 1.6 0  1.4 1.6 0  1.6 1.6 0  1.8 1.6 0  2 1.6 0  -2 1.8 0  -1.8 1.8 0  -1.6 1.8 0  -1.4 1.8 0  -1.2 1.8 0  -1 1.8 0  -0.8 1.8 0  -0.6000000000000001 1.8 0  -0.3999999999999999 1.8 0  -0.2 1.8 0  0 1.8 0  0.2000000000000002 1.8 0  0.3999999999999999 1.8 0  0.6000000000000001 1.8 0  0.7999999999999998 1.8 0  1 1.8 0  1.2 1.8 0  1.4 1.8 0  1.6 1.8 0  1.8 1.8 0  2 1.8 0  -2 2 0  -1.8 2 0  -1.6 2 0  -1.4 2 0  -1.2 2 0  -1 2 0  -0.8 2 0  -0.6000000000000001 2 0  -0.3999999999999999 2 0  -0.2 2 0  0 2 0  0.2000000000000002 2 0  0.3999999999999999 2 0  0.6000000000000001 2 0  0.7999999999999998 2 0  1 2 0  1.2 2 0  1.4 2 0  1.6 2 0  1.8 2 0  2 2 0  </DataArray>
</Points>
<Cells>
[...]
<PointData  Scalars="f_8"> 
<DataArray  type="Float64"  Name="f_8"  format="ascii">1.4878089755356138e-02  1.4918314429547455e-02  1.4935894264716698e-02  1.4945893754203762e-02  1.4952718220156388e-02  1.4957943395830014e-02  1.4962259775357459e-02  1.4966026050144944e-02  1.4969455107685216e-02  1.4972688596564762e-02  1.4975832481620001e-02  1.4978977469046523e-02  1.4982213943055118e-02  1.4985646879433776e-02  1.4989416181973905e-02  1.4993732005090070e-02  1.4998948723401580e-02  1.5005749424875814e-02  1.5015696112454333e-02  1.5033173094978737e-02  1.5073277699144978e-02  1.5165441420621789e-02  1.5175429732081648e-02  1.5185434801102824e-02  1.5193177525090277e-02  1.5199161754482994e-02  1.5203993203367596e-02  1.5208085601515972e-02  1.5211704092168443e-02  1.5215023537962388e-02  1.5218166939803691e-02  1.5221229092396758e-02  1.5224292237521607e-02  1.5227438325054231e-02  1.5230761263969144e-02  1.5234382544486030e-02  1.5238474848974904e-02  1.5243300486596017e-02  1.5249270123149755e-02  1.5256988135831736e-02  1.5266963437789677e-02  1.5276914144555700e-02  1.5914479919892841e-02  1.5916704470975550e-02  1.5921437168122325e-02  1.5926344607273862e-02  1.5930790349969470e-02  1.5934722484117855e-02  1.5938238858333550e-02  1.5941453261218878e-02  1.5944463332821956e-02  1.5947348407455979e-02  1.5950174779424203e-02  1.5953002149219544e-02  1.5955889984702772e-02  1.5958903892886844e-02  1.5962122106729662e-02  1.5965640856515785e-02  1.5969572469346927e-02  1.5974013830498922e-02  1.5978913369675007e-02  1.5983635965887370e-02  1.5985845573209288e-02  1.7123048828297835e-02  1.7122681714429676e-02  1.7124437734417457e-02  1.7127079687768061e-02  1.7129958773878171e-02  1.7132810778125743e-02  1.7135556258241230e-02  1.7138191350086450e-02  1.7140738634087389e-02  1.7143227663016809e-02  1.7145688475699725e-02  1.7148150358444473e-02  1.7150642421850267e-02  1.7153194198482033e-02  1.7155834471769514e-02  1.7158584917613243e-02  1.7161440833028365e-02  1.7164322237415229e-02  1.7166964722515558e-02  1.7168719036811338e-02  1.7168346906605521e-02  1.8773141585030628e-02  1.8771478955415186e-02  1.8771426237452073e-02  1.8772376882994456e-02  1.8773874651094407e-02  1.8775646351951499e-02  1.8777546917526217e-02  1.8779505051284923e-02  1.8781487785917615e-02  1.8783480724885178e-02  1.8785477818296800e-02  1.8787476094189948e-02  1.8789472443577915e-02  1.8791460428552731e-02  1.8793425081895070e-02  1.8795332791112812e-02  1.8797111666980327e-02  1.8798616190314206e-02  1.8799572819751115e-02  1.8799524918378805e-02  1.8797865930081686e-02  2.0837730975620243e-02  2.0835112313322302e-02  2.0833776203349069e-02  2.0833412702880090e-02  2.0833724067073549e-02  2.0834483591528067e-02  2.0835535709637448e-02  2.0836777517462914e-02  2.0838140128931912e-02  2.0839574857028843e-02  2.0841043965856402e-02  2.0842514423672364e-02  2.0843953079994575e-02  2.0845321867007285e-02  2.0846571622111652e-02  2.0847632943147568e-02  2.0848402483588956e-02  2.0848724400265330e-02  2.0848371933645436e-02  2.0847047600690248e-02  2.0844442377973303e-02  2.3281560537661151e-02  2.3278066996349319e-02  2.3275680456312380e-02  2.3274226468614326e-02  2.3273505800939464e-02  2.3273337891251897e-02  2.3273575267701532e-02  2.3274102149898668e-02  2.3274827426271388e-02  2.3275676997356894e-02  2.3276587123278698e-02  2.3277498866775007e-02  2.3278353170902471e-02  2.3279085964924763e-02  2.3279622688278382e-02  2.3279871760677012e-02  2.3279717071800050e-02  2.3279011109342350e-02  2.3277573708851008e-02  2.3275206641029944e-02  2.3271737251107073e-02  2.6060566824800829e-02  2.6056217086847647e-02  2.6052896833896871e-02  2.6050493817568611e-02  2.6048863435337438e-02  2.6047856829423333e-02  2.6047336260337704e-02  2.6047180382592600e-02  2.6047283713250529e-02  2.6047553443498635e-02  2.6047905303973534e-02  2.6048259218001555e-02  2.6048534967509338e-02  2.6048647893615797e-02  2.6048504650882383e-02  2.6047999230667449e-02  2.6047009972137745e-02  2.6045399251235342e-02  2.6043018975273450e-02  2.6039726145592745e-02  2.6035411054393543e-02  2.9121156964659438e-02  2.9115977250318704e-02  2.9111810854007613e-02  2.9108573206336648e-02  2.9106146661684568e-02  2.9104399387449905e-02  2.9103198974616783e-02  2.9102419958410983e-02  2.9101946516698663e-02  2.9101671986850808e-02  2.9101496521840662e-02  2.9101323780262204e-02  2.9101057232064447e-02  2.9100596506471340e-02  2.9099834206443211e-02  2.9098653764258180e-02  2.9096929218152576e-02  2.9094528205012272e-02  2.9091319768926115e-02  2.9087188192734044e-02  2.9082051959828034e-02  3.2399803494771978e-02  3.2393860125746875e-02  3.2388952027047280e-02  3.2385004408970651e-02  3.2381909076428114e-02  3.2379539299623228e-02  3.2377762324650540e-02  3.2376447719693280e-02  3.2375471553019987e-02  3.2374717247958609e-02  3.2374074150456435e-02  3.2373434735708216e-02  3.2372691212045494e-02  3.2371732173532793e-02  3.2370439952161961e-02  3.2368689424520224e-02  3.2366349188241841e-02  3.2363286116347298e-02  3.2359374080681617e-02  3.2354506754610581e-02  3.2348612584769641e-02  3.5823215287376454e-02  3.5816632022107019e-02  3.5811129221972104e-02  3.5806630660386710e-02  3.5803025185113690e-02  3.5800181539489079e-02  3.5797961314383613e-02  3.5796227914711140e-02  3.5794851245250808e-02  3.5793708828637451e-02  3.5792684392988779e-02  3.5791664924300221e-02  3.5790537029689956e-02  3.5789183352770496e-02  3.5787479784481026e-02  3.5785294319573585e-02  3.5782488553088784e-02  3.5778922835170521e-02  3.5774465740283874e-02  3.5769007444710663e-02  3.5762474741649973e-02  3.9309251929410920e-02  3.9302217931667056e-02  3.9296323921643138e-02  3.9291482442850433e-02  3.9287568272708108e-02  3.9284436915716571e-02  3.9281939697784797e-02  3.9279933363549513e-02  3.9278284413634748e-02  3.9276869426823027e-02  3.9275572742564331e-02  3.9274282641526576e-02  3.9272886882547660e-02  3.9271268289804540e-02  3.9269301089659439e-02  3.9266848871015142e-02  3.9263765325926556e-02  3.9259899152134702e-02  3.9255104323404517e-02  3.9249255835426565e-02  3.9242268589227247e-02  4.2768670489245639e-02  4.2761440783980940e-02  4.2755421882093934e-02  4.2750502435480786e-02  4.2746529854489179e-02  4.2743337072539377e-02  4.2740761280857610e-02  4.2738653567679599e-02  4.2736881528564086e-02  4.2735327442927781e-02  4.2733884041382945e-02  4.2732449141687126e-02  4.2730919876578621e-02  4.2729186962707735e-02  4.2727129468931986e-02  4.2724610835366106e-02  4.2721477468169296e-02  4.2717561989626264e-02  4.2712693758542281e-02  4.2706718616950780e-02  4.2699526436958693e-02  4.6107707624224309e-02  4.6100597679574397e-02  4.6094785401458185e-02  4.6090113899560352e-02  4.6086383535343306e-02  4.6083393406305274e-02  4.6080963987465723e-02  4.6078944382881064e-02  4.6077210559548505e-02  4.6075659479335840e-02  4.6074201889525927e-02  4.6072754947082711e-02  4.6071234959466002e-02  4.6069550150033549e-02  4.6067593365746305e-02  4.6065235044414184e-02  4.6062317690159033e-02  4.6058654743012448e-02  4.6054038908281941e-02  4.6048266342778546e-02  4.6041179703464774e-02  4.9231406001465403e-02  4.9224784114065556e-02  4.9219579523363720e-02  4.9215547003915845e-02  4.9212408038201622e-02  4.9209914643643819e-02  4.9207871538020288e-02  4.9206134413850751e-02  4.9204599039311063e-02  4.9203188890901493e-02  4.9201844129629309e-02  4.9200512259822013e-02  4.9199139794863830e-02  4.9197663927424508e-02  4.9196003205703338e-02  4.9194046561630803e-02  4.9191641103203392e-02  4.9188581670181905e-02  4.9184610221760974e-02  4.9179440205661853e-02  4.9172823484327381e-02  5.2047497171098911e-02  5.2041784536333159e-02  5.2037676885320905e-02  5.2034749771618871e-02  5.2032595354349342e-02  5.2030907918732619e-02  5.2029487071762782e-02  5.2028212606625247e-02  5.2027017359828981e-02  5.2025866115232071e-02  5.2024740902214414e-02  5.2023630742276158e-02  5.2022523569623662e-02  5.2021398142278456e-02  5.2020213750512571e-02  5.2018895427226847e-02  5.2017312721840687e-02  5.2015252539027113e-02  5.2012394658496407e-02  5.2008317526526168e-02  5.2002589621251580e-02  5.4470556306731754e-02  5.4466264965498876e-02  5.4463891534068470e-02  5.4462634906839821e-02  5.4461891250195377e-02  5.4461307387605129e-02  5.4460711573948294e-02  5.4460040095037854e-02  5.4459287143524514e-02  5.4458475565903275e-02  5.4457641003591413e-02  5.4456823355470529e-02  5.4456061389092779e-02  5.4455387348379909e-02  5.4454818380018394e-02  5.4454340522928170e-02  5.4453879046813217e-02  5.4453247550043604e-02  5.4452073772162587e-02  5.4449731744637984e-02  5.4445404516153442e-02  5.6426031136869968e-02  5.6423947753655078e-02  5.6424251872421685e-02  5.6425363860390688e-02  5.6426456542266495e-02  5.6427212405715549e-02  5.6427567923564848e-02  5.6427568076722834e-02  5.6427297859381775e-02  5.6426853494273288e-02  5.6426332010783044e-02  5.6425828788410765e-02  5.6425438064067600e-02  5.6425253469665468e-02  5.6425365638469262e-02  5.6425851768068400e-02  5.6426746457075391e-02  5.6427971850777227e-02  5.6429188926525924e-02  5.6429537528904901e-02  5.6427400888568867e-02  5.7853514444903054e-02  5.7855470885885260e-02  5.7860050823842747e-02  5.7864353560928818e-02  5.7867602566865461e-02  5.7869780687939840e-02  5.7871077694985784e-02  5.7871712201269437e-02  5.7871884655949009e-02  5.7871771259877150e-02  5.7871529526579271e-02  5.7871306747128801e-02  5.7871249047615175e-02  5.7871510524260268e-02  5.7872261936195615e-02  5.7873696606222463e-02  5.7876024597892740e-02  5.7879425108699763e-02  5.7883864162528186e-02  5.7888526991121909e-02  5.7890426703242681e-02  5.8707779274434248e-02  5.8719986509702886e-02  5.8731560547157217e-02  5.8739690615352544e-02  5.8745032546225595e-02  5.8748412913045361e-02  5.8750439675429693e-02  5.8751540448612104e-02  5.8752028000023812e-02  5.8752145760943959e-02  5.8752097466339803e-02  5.8752068174709321e-02  5.8752241709621747e-02  5.8752818202567572e-02  5.8754035436273729e-02  5.8756199103700814e-02  5.8759729410654701e-02  5.8765228418831625e-02  5.8773520232853954e-02  5.8785251146955465e-02  5.8797463059495084e-02  5.8952251044120656e-02  5.9000621458763773e-02  5.9021513028387984e-02  5.9032526904034856e-02  5.9038981551248308e-02  5.9042888362816660e-02  5.9045204466066557e-02  5.9046481095032348e-02  5.9047084357773408e-02  5.9047285645141140e-02  5.9047306487961845e-02  5.9047345930545295e-02  5.9047601684902834e-02  5.9048291371033498e-02  5.9049680153365806e-02  5.9052126053482472e-02  5.9056171057812426e-02  5.9062763144723758e-02  5.9073908919661779e-02  5.9094951809650492e-02  5.9143721366731371e-02  </DataArray> 
</PointData> 
</Piece>
</UnstructuredGrid>
</VTKFile>