<?xml version="1.0"?>
<VTKFile type="UnstructuredGrid"  version="0.1"  >
<UnstructuredGrid>
<Piece  NumberOfPoints="441" NumberOfCells="800">
<Points>
<DataArray  type="Float64"  NumberOfComponents="3"  format="ascii">-2 -2 0  -1.8 -2 0  -1.6 -2 0  -1.4 -2 0  -1.2 -2 0  -1 -2 0  -0.8 -2 0  -0.6000000000000001 -2 0  -0.3999999999999999 -2 0  -0.2 -2 0  0 -2 0  0.2000000000000002 -2 0  0.3999999999999999 -2 0  0.6000000000000001 -2 0  0.7999999999999998 -2 0  1 -2 0  1.2 -2 0  1.4 -2 0  1.6 -2 0  1.8 -2 0  2 -2 0  -2 -1.8 0  -1.8 -1.8 0  -1.6 -1.8 0  -1.4 -1.8 0  -1.2 -1.8 0  -1 -1.8 0  -0.8 -1.8 0  -0.6000000000000001 -1.8 0  -0.3999999999999999 -1.8 0  -0.2 -1.8 0  0 -1.8 0  0.2000000000000002 -1.8 0  0.3999999999999999 -1.8 0  0.6000000000000001 -1.8 0  0.7999999999999998 -1.8 0  1 -1.8 0  1.2 -1.8 0  1.4 -1.8 0  1.6 -1.8 0  1.8 -1.8 0  2 -1.8 0  -2 -1.6 0  -1.8 -1.6 0  -1.6 -1.6 0  -1.4 -1.6 0  -1.2 -1.6 0  -1 -1.6 0  -0.8 -1.6 0  -0.6000000000000001 -1.6 0  -0.3999999999999999 -1.6 0  -0.2 -1.6 0  0 -1.6 0  0.2000000000000002 -1.6 0  0.3999999999999999 -1.6 0  0.6000000000000001 -1.6 0  0.7999999999999998 -1.6 0  1 -1.6 0  1.2 -1.6 0  1.4 -1.6 0  1.6 -1.6 0  1.8 -1.6 0  2 -1.6 0  -2 -1.4 0  -1.8 -1.4 0  -1.6 -1.4 0  -1.4 -1.4 0  -1.2 -1.4 0  -1 -1.4 0  -0.8 -1.4 0  -0.6000000000000001 -1.4 0  -0.3999999999999999 -1.4 0  -0.2 -1.4 0  0 -1.4 0  0.2000000000000002 -1.4 0  0.3999999999999999 -1.4 0  0.6000000000000001 -1.4 0  0.7999999999999998 -1.4 0  1 -1.4 0  1.2 -1.4 0  1.4 -1.4 0  1.6 -1.4 0  1.8 -1.4 0  2 -1.4 0  -2 -1.2 0  -1.8 -1.2 0  -1.6 -1.2 0  -1.4 -1.2 0  -1.2 -1.2 0  -1 -1.2 0  -0.8 -1.2 0  -0.6000000000000001 -1.2 0  -0.3999999999999999 -1.2 0  -0.2 -1.2 0  0 -1.2 0  0.2000000000000002 -1.2 0  0.3999999999999999 -1.2 0  0.6000000000000001 -1.2 0  0.7999999999999998 -1.2 0  1 -1.2 0  1.2 -1.2 0  1.4 -1.2 0  1.6 -1.2 0  1.8 -1.2 0  2 -1.2 0  -2 -1 0  -1.8 -1 0  -1.6 -1 0  -1.4 -1 0  -1.2 -1 0  -1 -1 0  -0.8 -1 0  -0.6000000000000001 -1 0  -0.3999999999999999 -1 0  -0.2 -1 0  0 -1 0  0.2000000000000002 -1 0  0.3999999999999999 -1 0  0.6000000000000001 -1 0  0.7999999999999998 -1 0  1 -1 0  1.2 -1 0  1.4 -1 0  1.6 -1 0  1.8 -1 0  2 -1 0  -2 -0.8 0  -1.8 -0.8 0  -1.6 -0.8 0  -1.4 -0.8 0  -1.2 -0.8 0  -1 -0.8 0  -0.8 -0.8 0  -0.6000000000000001 -0.8 0  -0.3999999999999999 -0.8 0  -0.2 -0.8 0  0 -0.8 0  0.2000000000000002 -0.8 0  0.3999999999999999 -0.8 0  0.6000000000000001 -0.8 0  0.7999999999999998 -0.8 0  1 -0.8 0  1.2 -0.8 0  1.4 -0.8 0  1.6 -0.8 0  1.8 -0.8 0  2 -0.8 0  -2 -0.6000000000000001 0  -1.8 -0.6000000000000001 0  -1.6 -0.6000000000000001 0  -1.4 -0.6000000000000001 0  -1.2 -0.6000000000000001 0  -1 -0.6000000000000001 0  -0.8 -0.6000000000000001 0  -0.6000000000000001 -0.6000000000000001 0  -0.3999999999999999 -0.6000000000000001 0  -0.2 -0.6000000000000001 0  0 -0.6000000000000001 0  0.2000000000000002 -0.6000000000000001 0  0.3999999999999999 -0.6000000000000001 0  0.6000000000000001 -0.6000000000000001 0  0.7999999999999998 -0.6000000000000001 0  1 -0.6000000000000001 0  1.2 -0.6000000000000001 0  1.4 -0.6000000000000001 0  1.6 -0.6000000000000001 0  1.8 -0.6000000000000001 0  2 -0.6000000000000001 0  -2 -0.3999999999999999 0  -1.8 -0.3999999999999999 0  -1.6 -0.3999999999999999 0  -1.4 -0.3999999999999999 0  -1.2 -0.3999999999999999 0  -1 -0.3999999999999999 0  -0.8 -0.3999999999999999 0  -0.6000000000000001 -0.3999999999999999 0  -0.3999999999999999 -0.3999999999999999 0  -0.2 -0.3999999999999999 0  0 -0.3999999999999999 0  0.2000000000000002 -0.3999999999999999 0  0.3999999999999999 -0.3999999999999999 0  0.6000000000000001 -0.3999999999999999 0  0.7999999999999998 -0.3999999999999999 0  1 -0.3999999999999999 0  1.2 -0.3999999999999999 0  1.4 -0.3999999999999999 0  1.6 -0.3999999999999999 0  1.8 -0.3999999999999999 0  2 -0.3999999999999999 0  -2 -0.2 0  -1.8 -0.2 0  -1.6 -0.2 0  -1.4 -0.2 0  -1.2 -0.2 0  -1 -0.2 0  -0.8 -0.2 0  -0.6000000000000001 -0.2 0  -0.3999999999999999 -0.2 0  -0.2 -0.2 0  0 -0.2 0  0.2000000000000002 -0.2 0  0.3999999999999999 -0.2 0  0.6000000000000001 -0.2 0  0.7999999999999998 -0.2 0  1 -0.2 0  1.2 -0.2 0  1.4 -0.2 0  1.6 -0.2 0  1.8 -0.2 0  2 -0.2 0  -2 0 0  -1.8 0 0  -1.6 0 0  -1.4 0 0  -1.2 0 0  -1 0 0  -0.8 0 0  -0.6000000000000001 0 0  -0.3999999999999999 0 0  -0.2 0 0  0 0 0  0.2000000000000002 0 0  0.3999999999999999 0 0  0.6000000000000001 0 0  0.7999999999999998 0 0  1 0 0  1.2 0 0  1.4 0 0  1.6 0 0  1.8 0 0  2 0 0  -2 0.2000000000000002 0  -1.8 0.2000000000000002 0  -1.6 0.2000000000000002 0  -1.4 0.2000000000000002 0  -1.2 0.2000000000000002 0  -1 0.2000000000000002 0  -0.8 0.2000000000000002 0  -0.6000000000000001 0.2000000000000002 0  -0.3999999999999999 0.2000000000000002 0  -0.2 0.2000000000000002 0  0 0.2000000000000002 0  0.2000000000000002 0.2000000000000002 0  0.3999999999999999 0.2000000000000002 0  0.6000000000000001 0.2000000000000002 0  0.7999999999999998 0.2000000000000002 0  1 0.2000000000000002 0  1.2 0.2000000000000002 0  1.4 0.2000000000000002 0  1.6 0.2000000000000002 0  1.8 0.2000000000000002 0  2 0.2000000000000002 0  -2 0.3999999999999999 0  -1.8 0.3999999999999999 0  -1.6 0.3999999999999999 0  -1.4 0.3999999999999999 0  -1.2 0.3999999999999999 0  -1 0.3999999999999999 0  -0.8 0.3999999999999999 0  -0.6000000000000001 0.3999999999999999 0  -0.3999999999999999 0.3999999999999999 0  -0.2 0.3999999999999999 0  0 0.3999999999999999 0  0.2000000000000002 0.3999999999999999 0  0.3999999999999999 0.3999999999999999 0  0.6000000000000001 0.3999999999999999 0  0.7999999999999998 0.3999999999999999 0  1 0.3999999999999999 0  1.2 0.3999999999999999 0  1.4 0.3999999999999999 0  1.6 0.3999999999999999 0  1.8 0.3999999999999999 0  2 0.3999999999999999 0  -2 0.6000000000000001 0  -1.8 0.6000000000000001 0  -1.6 0.6000000000000001 0  -1.4 0.6000000000000001 0  -1.2 0.6000000000000001 0  -1 0.6000000000000001 0  -0.8 0.6000000000000001 0  -0.6000000000000001 0.6000000000000001 0  -0.3999999999999999 0.6000000000000001 0  -0.2 0.6000000000000001 0  0 0.6000000000000001 0  0.2000000000000002 0.6000000000000001 0  0.3999999999999999 0.6000000000000001 0  0.6000000000000001 0.6000000000000001 0  0.7999999999999998 0.6000000000000001 0  1 0.6000000000000001 0  1.2 0.6000000000000001 0  1.4 0.6000000000000001 0  1.6 0.6000000000000001 0  1.8 0.6000000000000001 0  2 0.6000000000000001 0  -2 0.7999999999999998 0  -1.8 0.7999999999999998 0  -1.6 0.7999999999999998 0  -1.4 0.7999999999999998 0  -1.2 0.7999999999999998 0  -1 0.7999999999999998 0  -0.8 0.7999999999999998 0  -0.6000000000000001 0.7999999999999998 0  -0.3999999999999999 0.7999999999999998 0  -0.2 0.7999999999999998 0  0 0.7999999999999998 0  0.2000000000000002 0.7999999999999998 0  0.3999999999999999 0.7999999999999998 0  0.6000000000000001 0.7999999999999998 0  0.7999999999999998 0.7999999999999998 0  1 0.7999999999999998 0  1.2 0.7999999999999998 0  1.4 0.7999999999999998 0  1.6 0.7999999999999998 0  1.8 0.7999999999999998 0  2 0.7999999999999998 0  -2 1 0  -1.8 1 0  -1.6 1 0  -1.4 1 0  -1.2 1 0  -1 1 0  -0.8 1 0  -0.6000000000000001 1 0  -0.3999999999999999 1 0  -0.2 1 0  0 1 0  0.2000000000000002 1 0  0.3999999999999999 1 0  0.6000000000000001 1 0  0.7999999999999998 1 0  1 1 0  1.2 1 0  1.4 1 0  1.6 1 0  1.8 1 0  2 1 0  -2 1.2 0  -1.8 1.2 0  -1.6 1.2 0  -1.4 1.2 0  -1.2 1.2 0  -1 1.2 0  -0.8 1.2 0  -0.6000000000000001 1.2 0  -0.3999999999999999 1.2 0  -0.2 1.2 0  0 1.2 0  0.2000000000000002 1.2 0  0.3999999999999999 1.2 0  0.6000000000000001 1.2 0  0.7999999999999998 1.2 0  1 1.2 0  1.2 1.2 0  1.4 1.2 0  1.6 1.2 0  1.8 1.2 0  2 1.2 0  -2 1.4 0  -1.8 1.4 0  -1.6 1.4 0  -1.4 1.4 0  -1.2 1.4 0  -1 1.4 0  -0.8 1.4 0  -0.6000000000000001 1.4 0  -0.3999999999999999 1.4 0  -0.2 1.4 0  0 1.4 0  0.2000000000000002 1.4 0  0.3999999999999999 1.4 0  0.6000000000000001 1.4 0  0.7999999999999998 1.4 0  1 1.4 0  1.2 1.4 0  1.4 1.4 0  1.6 1.4 0  1.8 1.4 0  2 1.4 0  -2 1.6 0  -1.8 1.6 0  -1.6 1.6 0  -1.4 1.6 0  -1.2 1.6 0  -1 1.6 0  -0.8 1.6 0  -0.6000000000000001 1.6 0  -0.3999999999999999 1.6 0  -0.2 1.6 0  0 1.6 0  0.2000000000000002 1.6 0  0.3999999999999999 1.6 0  0.6000000000000001 1.6 0  0.7999999999999998 1.6 0  1 1.6 0  1.2 1.6 0  1.4 1.6 0  1.6 1.6 0  1.8 1.6 0  2 1.6 0  -2 1.8 0  -1.8 1.8 0  -1.6 1.8 0  -1.4 1.8 0  -1.2 1.8 0  -1 1.8 0  -0.8 1.8 0  -0.6000000000000001 1.8 0  -0.3999999999999999 1.8 0  -0.2 1.8 0  0 1.8 0  0.2000000000000002 1.8 0  0.3999999999999999 1.8 0  0.6000000000000001 1.8 0  0.7999999999999998 1.8 0  1 1.8 0  1.2 1.8 0  1.4 1.8 0  1.6 1.8 0  1.8 1.8 0  2 1.8 0  -2 2 0  -1.8 2 0  -1.6 2 0  -1.4 2 0  -1.2 2 0  -1 2 0  -0.8 2 0  -0.6000000000000001 2 0  -0.3999999999999999 2 0  -0.2 2 0  0 2 0  0.2000000000000002 2 0  0.3999999999999999 2 0  0.6000000000000001 2 0  0.7999999999999998 2 0  1 2 0  1.2 2 0  1.4 2 0  1.6 2 0  1.8 2 0  2 2 0  </DataArray>
</Points>
<Cells>
[...]
<PointData  Scalars="f_8"> 
<DataArray  type="Float64"  Name="f_8"  format="ascii">3.5404544257782632e-02  3.5410059229236304e-02  3.5412367006597230e-02  3.5413573929319590e-02  3.5414303029449146e-02  3.5414781908264775e-02  3.5415113438318949e-02  3.5415353067173361e-02  3.5415534964798656e-02  3.5415682649331669e-02  3.5415814186870231e-02  3.5415945294208072e-02  3.5416091683565687e-02  3.5416271403173397e-02  3.5416507924690914e-02  3.5416835304813286e-02  3.5417308716698646e-02  3.5418030361254023e-02  3.5419226244193157e-02  3.5421516474524919e-02  3.5427010520734506e-02  3.5444488885557658e-02  3.5445765265113054e-02  3.5447002306459467e-02  3.5447886334755027e-02  3.5448493931413784e-02  3.5448915919304713e-02  3.5449215689775528e-02  3.5449435106308727e-02  3.5449602690049063e-02  3.5449739120535284e-02  3.5449860725924161e-02  3.5449981885916013e-02  3.5450116975097437e-02  3.5450282303644873e-02  3.5450498512011250e-02  3.5450794047900393e-02  3.5451210659229744e-02  3.5451811634578424e-02  3.5452688047608392e-02  3.5453918281510663e-02  3.5455193379657690e-02  3.5548028568388304e-02  3.5548173210484958e-02  3.5548642782754165e-02  3.5549112336767025e-02  3.5549495203541441e-02  3.5549787434553018e-02  3.5550006337179363e-02  3.5550171326083659e-02  3.5550299247611383e-02  3.5550404053262992e-02  3.5550497611405864e-02  3.5550590742108569e-02  3.5550694266851063e-02  3.5550820059576084e-02  3.5550982087613446e-02  3.5551197242594985e-02  3.5551485068420825e-02  3.5551863224060828e-02  3.5552328626223997e-02  3.5552796361735840e-02  3.5552943813140579e-02  3.5713362178688757e-02  3.5713105943030052e-02  3.5713133051164553e-02  3.5713270097947648e-02  3.5713426495742995e-02  3.5713566419595638e-02  3.5713680569219822e-02  3.5713770523281771e-02  3.5713841609820059e-02  3.5713900058666447e-02  3.5713952074051404e-02  3.5714003708866147e-02  3.5714061026124337e-02  3.5714130264431779e-02  3.5714217726235370e-02  3.5714328880726308e-02  3.5714465573644494e-02  3.5714618990861480e-02  3.5714754117036666e-02  3.5714781475069686e-02  3.5714528634040128e-02  3.5935794374001837e-02  3.5935339775006798e-02  3.5935103751295980e-02  3.5935000677075682e-02  3.5934966081750064e-02  3.5934961747060297e-02  3.5934968030572056e-02  3.5934976065906260e-02  3.5934982597109900e-02  3.5934987070037068e-02  3.5934990131058116e-02  3.5934992876132325e-02  3.5934996417794525e-02  3.5935001456547676e-02  3.5935007543893470e-02  3.5935011606157891e-02  3.5935005071794486e-02  3.5934968742145829e-02  3.5934864992188384e-02  3.5934629983817169e-02  3.5934178482772167e-02  3.6208954324116256e-02  3.6208375441823884e-02  3.6207971727317309e-02  3.6207699192279119e-02  3.6207515512112425e-02  3.6207388675241314e-02  3.6207297122792109e-02  3.6207227098745409e-02  3.6207169909815443e-02  3.6207119870305060e-02  3.6207072925870769e-02  3.6207025736245832e-02  3.6206974980032662e-02  3.6206916662906284e-02  3.6206845210310916e-02  3.6206752106288036e-02  3.6206623853493117e-02  3.6206439235799436e-02  3.6206166635371233e-02  3.6205764077032521e-02  3.6205187727965688e-02  3.6525241768566551e-02  3.6524577785314920e-02  3.6524062898092943e-02  3.6523672475395987e-02  3.6523378393672923e-02  3.6523155387290243e-02  3.6522983185952901e-02  3.6522846305808689e-02  3.6522732986817172e-02  3.6522634030919938e-02  3.6522541800009252e-02  3.6522449392411060e-02  3.6522349923616478e-02  3.6522235809116926e-02  3.6522097946530753e-02  3.6521924720353420e-02  3.6521700842861340e-02  3.6521406281267960e-02  3.6521016014592254e-02  3.6520502107854326e-02  3.6519839987606051e-02  3.6876108897547430e-02  3.6875388269251012e-02  3.6874801226833828e-02  3.6874332381440840e-02  3.6873961945746062e-02  3.6873669782118028e-02  3.6873437598969286e-02  3.6873249662259286e-02  3.6873092656414815e-02  3.6872955170355846e-02  3.6872827068292140e-02  3.6872698851590328e-02  3.6872561034162463e-02  3.6872403518948410e-02  3.6872214962425758e-02  3.6871982147543579e-02  3.6871689467676411e-02  3.6871318776250307e-02  3.6870850073516745e-02  3.6870263666253733e-02  3.6869544180459284e-02  3.7252311240534200e-02  3.7251558632668283e-02  3.7250930351319225e-02  3.7250415519999143e-02  3.7249999007458859e-02  3.7249664029666903e-02  3.7249393986472021e-02  3.7249173429935847e-02  3.7248988363083983e-02  3.7248826116545487e-02  3.7248674994935636e-02  3.7248523813654601e-02  3.7248361394297248e-02  3.7248176060587800e-02  3.7247955176350982e-02  3.7247684792486170e-02  3.7247349521607784e-02  3.7246932829871668e-02  3.7246417992108705e-02  3.7245789910856988e-02  3.7245037703008958e-02  3.7644156077467336e-02  3.7643394486283920e-02  3.7642751869094285e-02  3.7642219451080053e-02  3.7641784462984385e-02  3.7641432004634399e-02  3.7641146585682919e-02  3.7640913125176437e-02  3.7640717427210681e-02  3.7640546253572930e-02  3.7640387129422269e-02  3.7640227995273785e-02  3.7640056790709746e-02  3.7639861038362102e-02  3.7639627496611615e-02  3.7639341966122446e-02  3.7638989362976924e-02  3.7638554193851474e-02  3.7638021553669028e-02  3.7637378663092823e-02  3.7636616728505094e-02  3.8041751891008752e-02  3.8041003245851267e-02  3.8040370992430544e-02  3.8039847007451902e-02  3.8039419304787998e-02  3.8039073670148089e-02  3.8038795090318892e-02  3.8038568741947068e-02  3.8038380509384247e-02  3.8038217113044039e-02  3.8038065963860133e-02  3.8037914852101694e-02  3.8037751559919224e-02  3.8037563473990017e-02  3.8037337274845651e-02  3.8037058792883306e-02  3.8036713140259498e-02  3.8036285235142818e-02  3.8035760799778141e-02  3.8035127799829802e-02  3.8034378085350547e-02  3.8435255784017831e-02  3.8434541041819419e-02  3.8433942523392092e-02  3.8433451585645623e-02  3.8433055682214327e-02  3.8432740199820049e-02  3.8432489976649845e-02  3.8432290287004102e-02  3.8432127307399679e-02  3.8431988182036858e-02  3.8431860821491394e-02  3.8431733546821341e-02  3.8431594664350470e-02  3.8431432040210760e-02  3.8431232744230867e-02  3.8430982849982309e-02  3.8430667505723867e-02  3.8430271413051040e-02  3.8429779832618471e-02  3.8429180128659923e-02  3.8428463625157332e-02  3.8815113902324033e-02  3.8814453025774784e-02  3.8813910896897813e-02  3.8813476969220002e-02  3.8813136629633545e-02  3.8812873719241581e-02  3.8812672317156877e-02  3.8812517682709914e-02  3.8812396542886617e-02  3.8812296962009392e-02  3.8812207979621455e-02  3.8812119135173816e-02  3.8812019948046256e-02  3.8811899396619901e-02  3.8811745440816996e-02  3.8811544658939913e-02  3.8811282121730524e-02  3.8810941695803305e-02  3.8810507019128242e-02  3.8809963333699120e-02  3.8809300051532582e-02  3.9172289398083981e-02  3.9171701466224756e-02  3.9171238489821049e-02  3.9170885799328904e-02  3.9170624605370248e-02  3.9170435848522915e-02  3.9170302305792569e-02  3.9170209283887397e-02  3.9170144489663335e-02  3.9170097526664401e-02  3.9170059266690004e-02  3.9170021201333505e-02  3.9169974798943401e-02  3.9169910859510985e-02  3.9169818860621125e-02  3.9169686322319097e-02  3.9169498301445976e-02  3.9169237274898093e-02  3.9168883875458735e-02  3.9168419079728650e-02  3.9167828155478049e-02  3.9498472388543079e-02  3.9497976186719387e-02  3.9497616867335848e-02  3.9497371394711440e-02  3.9497213511441302e-02  3.9497119672885737e-02  3.9497071094601433e-02  3.9497053599661068e-02  3.9497056637818412e-02  3.9497072181248032e-02  3.9497093746191508e-02  3.9497115565578444e-02  3.9497131849054436e-02  3.9497136039634069e-02  3.9497119976294168e-02  3.9497072899986281e-02  3.9496980332813833e-02  3.9496823093366745e-02  3.9496577182040263e-02  3.9496215948447370e-02  3.9495716230022543e-02  3.9786266226612098e-02  3.9785882170691775e-02  3.9785656320844680e-02  3.9785548393927034e-02  3.9785519536607944e-02  3.9785540323546337e-02  3.9785591026211833e-02  3.9785659272021684e-02  3.9785737551972220e-02  3.9785821305938281e-02  3.9785907599948420e-02  3.9785994206826082e-02  3.9786078879869638e-02  3.9786158622331341e-02  3.9786228754490498e-02  3.9786281565621522e-02  3.9786304361174238e-02  3.9786276928559974e-02  3.9786169191221389e-02  3.9785941610198411e-02  3.9785553578382100e-02  4.0029343392419779e-02  4.0029099528883769e-02  4.0029050247905984e-02  4.0029118811451193e-02  4.0029246973443254e-02  4.0029399955990218e-02  4.0029559882160295e-02  4.0029718900751653e-02  4.0029874545296468e-02  4.0030027055678236e-02  4.0030177936799916e-02  4.0030329180321976e-02  4.0030482765575692e-02  4.0030640156845571e-02  4.0030801512147614e-02  4.0030964212759833e-02  4.0031120127034116e-02  4.0031250869830955e-02  4.0031320804685959e-02  4.0031270489728377e-02  4.0031022276354383e-02  4.0222559724863327e-02  4.0222512033133200e-02  4.0222713493536698e-02  4.0223011766990092e-02  4.0223325977108024e-02  4.0223623419853499e-02  4.0223895268955007e-02  4.0224142883391052e-02  4.0224371437019950e-02  4.0224587275591438e-02  4.0224796964003287e-02  4.0225007046667163e-02  4.0225224064204694e-02  4.0225454568958971e-02  4.0225704879769335e-02  4.0225980110961984e-02  4.0226281476096838e-02  4.0226599777829275e-02  4.0226901404117527e-02  4.0227103575358615e-02  4.0227051401913440e-02  4.0361996505937865e-02  4.0362306035288717e-02  4.0362900081325953e-02  4.0363497267564573e-02  4.0364019503057513e-02  4.0364461011025879e-02  4.0364835639226618e-02  4.0365160054677933e-02  4.0365449399989331e-02  4.0365716773254172e-02  4.0365973748975721e-02  4.0366231126584509e-02  4.0366499707994150e-02  4.0366791077202355e-02  4.0367118354838367e-02  4.0367496727193183e-02  4.0367942923731207e-02  4.0368470801713609e-02  4.0369074174173881e-02  4.0369672808338149e-02  4.0369978877163717e-02  4.0444817034295581e-02  4.0446075603491963e-02  4.0447320472475949e-02  4.0448274616172189e-02  4.0448994717928496e-02  4.0449553936642874e-02  4.0450004725231165e-02  4.0450382662965072e-02  4.0450712795979504e-02  4.0451013980805341e-02  4.0451301648298431e-02  4.0451589701312220e-02  4.0451892046236504e-02  4.0452224127960457e-02  4.0452604839585876e-02  4.0453059313920500e-02  4.0453623327786015e-02  4.0454349770346357e-02  4.0455312643126726e-02  4.0456569097108971e-02  4.0457831239950538e-02  4.0468446202224763e-02  4.0473166541399784e-02  4.0475296401187855e-02  4.0476522006226881e-02  4.0477346800032683e-02  4.0477956679758315e-02  4.0478436903077050e-02  4.0478834422951478e-02  4.0479179051433743e-02  4.0479492059688822e-02  4.0479790368557721e-02  4.0480089031727749e-02  4.0480403103203798e-02  4.0480749506896195e-02  4.0481149526676231e-02  4.0481633010566703e-02  4.0482246997715847e-02  4.0483076958689176e-02  4.0484309511675566e-02  4.0486451844785561e-02  4.0491214247718170e-02  </DataArray> 
</PointData> 
</Piece>
</UnstructuredGrid>
</VTKFile>