<?xml version="1.0"?>
<VTKFile type="UnstructuredGrid"  version="0.1"  >
<UnstructuredGrid>
<Piece  NumberOfPoints="441" NumberOfCells="800">
<Points>
<DataArray  type="Float64"  NumberOfComponents="3"  format="ascii">-2 -2 0  -1.8 -2 0  -1.6 -2 0  -1.4 -2 0  -1.2 -2 0  -1 -2 0  -0.8 -2 0  -0.6000000000000001 -2 0  -0.3999999999999999 -2 0  -0.2 -2 0  0 -2 0  0.2000000000000002 -2 0  0.3999999999999999 -2 0  0.6000000000000001 -2 0  0.7999999999999998 -2 0  1 -2 0  1.2 -2 0  1.4 -2 0  1.6 -2 0  1.8 -2 0  2 -2 0  -2 -1.8 0  -1.8 -1.8 0  -1.6 -1.8 0  -1.4 -1.8 0  -1.2 -1.8 0  -1 -1.8 0  -0.8 -1.8 0  -0.6000000000000001 -1.8 0  -0.3999999999999999 -1.8 0  -0.2 -1.8 0  0 -1.8 0  0.2000000000000002 -1.8 0  0.3999999999999999 -1.8 0  0.6000000000000001 -1.8 0  0.7999999999999998 -1.8 0  1 -1.8 0  1.2 -1.8 0  1.4 -1.8 0  1.6 -1.8 0  1.8 -1.8 0  2 -1.8 0  -2 -1.6 0  -1.8 -1.6 0  -1.6 -1.6 0  -1.4 -1.6 0  -1.2 -1.6 0  -1 -1.6 0  -0.8 -1.6 0  -0.6000000000000001 -1.6 0  -0.3999999999999999 -1.6 0  -0.2 -1.6 0  0 -1.6 0  0.2000000000000002 -1.6 0  0.3999999999999999 -1.6 0  0.6000000000000001 -1.6 0  0.7999999999999998 -1.6 0  1 -1.6 0  1.2 -1.6 0  1.4 -1.6 0  1.6 -1.6 0  1.8 -1.6 0  2 -1.6 0  -2 -1.4 0  -1.8 -1.4 0  -1.6 -1.4 0  -1.4 -1.4 0  -1.2 -1.4 0  -1 -1.4 0  -0.8 -1.4 0  -0.6000000000000001 -1.4 0  -0.3999999999999999 -1.4 0  -0.2 -1.4 0  0 -1.4 0  0.2000000000000002 -1.4 0  0.3999999999999999 -1.4 0  0.6000000000000001 -1.4 0  0.7999999999999998 -1.4 0  1 -1.4 0  1.2 -1.4 0  1.4 -1.4 0  1.6 -1.4 0  1.8 -1.4 0  2 -1.4 0  -2 -1.2 0  -1.8 -1.2 0  -1.6 -1.2 0  -1.4 -1.2 0  -1.2 -1.2 0  -1 -1.2 0  -0.8 -1.2 0  -0.6000000000000001 -1.2 0  -0.3999999999999999 -1.2 0  -0.2 -1.2 0  0 -1.2 0  0.2000000000000002 -1.2 0  0.3999999999999999 -1.2 0  0.6000000000000001 -1.2 0  0.7999999999999998 -1.2 0  1 -1.2 0  1.2 -1.2 0  1.4 -1.2 0  1.6 -1.2 0  1.8 -1.2 0  2 -1.2 0  -2 -1 0  -1.8 -1 0  -1.6 -1 0  -1.4 -1 0  -1.2 -1 0  -1 -1 0  -0.8 -1 0  -0.6000000000000001 -1 0  -0.3999999999999999 -1 0  -0.2 -1 0  0 -1 0  0.2000000000000002 -1 0  0.3999999999999999 -1 0  0.6000000000000001 -1 0  0.7999999999999998 -1 0  1 -1 0  1.2 -1 0  1.4 -1 0  1.6 -1 0  1.8 -1 0  2 -1 0  -2 -0.8 0  -1.8 -0.8 0  -1.6 -0.8 0  -1.4 -0.8 0  -1.2 -0.8 0  -1 -0.8 0  -0.8 -0.8 0  -0.6000000000000001 -0.8 0  -0.3999999999999999 -0.8 0  -0.2 -0.8 0  0 -0.8 0  0.2000000000000002 -0.8 0  0.3999999999999999 -0.8 0  0.6000000000000001 -0.8 0  0.7999999999999998 -0.8 0  1 -0.8 0  1.2 -0.8 0  1.4 -0.8 0  1.6 -0.8 0  1.8 -0.8 0  2 -0.8 0  -2 -0.6000000000000001 0  -1.8 -0.6000000000000001 0  -1.6 -0.6000000000000001 0  -1.4 -0.6000000000000001 0  -1.2 -0.6000000000000001 0  -1 -0.6000000000000001 0  -0.8 -0.6000000000000001 0  -0.6000000000000001 -0.6000000000000001 0  -0.3999999999999999 -0.6000000000000001 0  -0.2 -0.6000000000000001 0  0 -0.6000000000000001 0  0.2000000000000002 -0.6000000000000001 0  0.3999999999999999 -0.6000000000000001 0  0.6000000000000001 -0.6000000000000001 0  0.7999999999999998 -0.6000000000000001 0  1 -0.6000000000000001 0  1.2 -0.6000000000000001 0  1.4 -0.6000000000000001 0  1.6 -0.6000000000000001 0  1.8 -0.6000000000000001 0  2 -0.6000000000000001 0  -2 -0.3999999999999999 0  -1.8 -0.3999999999999999 0  -1.6 -0.3999999999999999 0  -1.4 -0.3999999999999999 0  -1.2 -0.3999999999999999 0  -1 -0.3999999999999999 0  -0.8 -0.3999999999999999 0  -0.6000000000000001 -0.3999999999999999 0  -0.3999999999999999 -0.3999999999999999 0  -0.2 -0.3999999999999999 0  0 -0.3999999999999999 0  0.2000000000000002 -0.3999999999999999 0  0.3999999999999999 -0.3999999999999999 0  0.6000000000000001 -0.3999999999999999 0  0.7999999999999998 -0.3999999999999999 0  1 -0.3999999999999999 0  1.2 -0.3999999999999999 0  1.4 -0.3999999999999999 0  1.6 -0.3999999999999999 0  1.8 -0.3999999999999999 0  2 -0.3999999999999999 0  -2 -0.2 0  -1.8 -0.2 0  -1.6 -0.2 0  -1.4 -0.2 0  -1.2 -0.2 0  -1 -0.2 0  -0.8 -0.2 0  -0.6000000000000001 -0.2 0  -0.3999999999999999 -0.2 0  -0.2 -0.2 0  0 -0.2 0  0.2000000000000002 -0.2 0  0.3999999999999999 -0.2 0  0.6000000000000001 -0.2 0  0.7999999999999998 -0.2 0  1 -0.2 0  1.2 -0.2 0  1.4 -0.2 0  1.6 -0.2 0  1.8 -0.2 0  2 -0.2 0  -2 0 0  -1.8 0 0  -1.6 0 0  -1.4 0 0  -1.2 0 0  -1 0 0  -0.8 0 0  -0.6000000000000001 0 0  -0.3999999999999999 0 0  -0.2 0 0  0 0 0  0.2000000000000002 0 0  0.3999999999999999 0 0  0.6000000000000001 0 0  0.7999999999999998 0 0  1 0 0  1.2 0 0  1.4 0 0  1.6 0 0  1.8 0 0  2 0 0  -2 0.2000000000000002 0  -1.8 0.2000000000000002 0  -1.6 0.2000000000000002 0  -1.4 0.2000000000000002 0  -1.2 0.2000000000000002 0  -1 0.2000000000000002 0  -0.8 0.2000000000000002 0  -0.6000000000000001 0.2000000000000002 0  -0.3999999999999999 0.2000000000000002 0  -0.2 0.2000000000000002 0  0 0.2000000000000002 0  0.2000000000000002 0.2000000000000002 0  0.3999999999999999 0.2000000000000002 0  0.6000000000000001 0.2000000000000002 0  0.7999999999999998 0.2000000000000002 0  1 0.2000000000000002 0  1.2 0.2000000000000002 0  1.4 0.2000000000000002 0  1.6 0.2000000000000002 0  1.8 0.2000000000000002 0  2 0.2000000000000002 0  -2 0.3999999999999999 0  -1.8 0.3999999999999999 0  -1.6 0.3999999999999999 0  -1.4 0.3999999999999999 0  -1.2 0.3999999999999999 0  -1 0.3999999999999999 0  -0.8 0.3999999999999999 0  -0.6000000000000001 0.3999999999999999 0  -0.3999999999999999 0.3999999999999999 0  -0.2 0.3999999999999999 0  0 0.3999999999999999 0  0.2000000000000002 0.3999999999999999 0  0.3999999999999999 0.3999999999999999 0  0.6000000000000001 0.3999999999999999 0  0.7999999999999998 0.3999999999999999 0  1 0.3999999999999999 0  1.2 0.3999999999999999 0  1.4 0.3999999999999999 0  1.6 0.3999999999999999 0  1.8 0.3999999999999999 0  2 0.3999999999999999 0  -2 0.6000000000000001 0  -1.8 0.6000000000000001 0  -1.6 0.6000000000000001 0  -1.4 0.6000000000000001 0  -1.2 0.6000000000000001 0  -1 0.6000000000000001 0  -0.8 0.6000000000000001 0  -0.6000000000000001 0.6000000000000001 0  -0.3999999999999999 0.6000000000000001 0  -0.2 0.6000000000000001 0  0 0.6000000000000001 0  0.2000000000000002 0.6000000000000001 0  0.3999999999999999 0.6000000000000001 0  0.6000000000000001 0.6000000000000001 0  0.7999999999999998 0.6000000000000001 0  1 0.6000000000000001 0  1.2 0.6000000000000001 0  1.4 0.6000000000000001 0  1.6 0.6000000000000001 0  1.8 0.6000000000000001 0  2 0.6000000000000001 0  -2 0.7999999999999998 0  -1.8 0.7999999999999998 0  -1.6 0.7999999999999998 0  -1.4 0.7999999999999998 0  -1.2 0.7999999999999998 0  -1 0.7999999999999998 0  -0.8 0.7999999999999998 0  -0.6000000000000001 0.7999999999999998 0  -0.3999999999999999 0.7999999999999998 0  -0.2 0.7999999999999998 0  0 0.7999999999999998 0  0.2000000000000002 0.7999999999999998 0  0.3999999999999999 0.7999999999999998 0  0.6000000000000001 0.7999999999999998 0  0.7999999999999998 0.7999999999999998 0  1 0.7999999999999998 0  1.2 0.7999999999999998 0  1.4 0.7999999999999998 0  1.6 0.7999999999999998 0  1.8 0.7999999999999998 0  2 0.7999999999999998 0  -2 1 0  -1.8 1 0  -1.6 1 0  -1.4 1 0  -1.2 1 0  -1 1 0  -0.8 1 0  -0.6000000000000001 1 0  -0.3999999999999999 1 0  -0.2 1 0  0 1 0  0.2000000000000002 1 0  0.3999999999999999 1 0  0.6000000000000001 1 0  0.7999999999999998 1 0  1 1 0  1.2 1 0  1.4 1 0  1.6 1 0  1.8 1 0  2 1 0  -2 1.2 0  -1.8 1.2 0  -1.6 1.2 0  -1.4 1.2 0  -1.2 1.2 0  -1 1.2 0  -0.8 1.2 0  -0.6000000000000001 1.2 0  -0.3999999999999999 1.2 0  -0.2 1.2 0  0 1.2 0  0.2000000000000002 1.2 0  0.3999999999999999 1.2 0  0.6000000000000001 1.2 0  0.7999999999999998 1.2 0  1 1.2 0  1.2 1.2 0  1.4 1.2 0  1.6 1.2 0  1.8 1.2 0  2 1.2 0  -2 1.4 0  -1.8 1.4 0  -1.6 1.4 0  -1.4 1.4 0  -1.2 1.4 0  -1 1.4 0  -0.8 1.4 0  -0.6000000000000001 1.4 0  -0.3999999999999999 1.4 0  -0.2 1.4 0  0 1.4 0  0.2000000000000002 1.4 0  0.3999999999999999 1.4 0  0.6000000000000001 1.4 0  0.7999999999999998 1.4 0  1 1.4 0  1.2 1.4 0  1.4 1.4 0  1.6 1.4 0  1.8 1.4 0  2 1.4 0  -2 1.6 0  -1.8 1.6 0  -1.6 1.6 0  -1.4 1.6 0  -1.2 1.6 0  -1 1.6 0  -0.8 1.6 0  -0.6000000000000001 1.6 0  -0.3999999999999999 1.6 0  -0.2 1.6 0  0 1.6 0  0.2000000000000002 1.6 0  0.3999999999999999 1.6 0  0.6000000000000001 1.6 0  0.7999999999999998 1.6 0  1 1.6 0  1.2 1.6 0  1.4 1.6 0  1.6 1.6 0  1.8 1.6 0  2 1.6 0  -2 1.8 0  -1.8 1.8 0  -1.6 1.8 0  -1.4 1.8 0  -1.2 1.8 0  -1 1.8 0  -0.8 1.8 0  -0.6000000000000001 1.8 0  -0.3999999999999999 1.8 0  -0.2 1.8 0  0 1.8 0  0.2000000000000002 1.8 0  0.3999999999999999 1.8 0  0.6000000000000001 1.8 0  0.7999999999999998 1.8 0  1 1.8 0  1.2 1.8 0  1.4 1.8 0  1.6 1.8 0  1.8 1.8 0  2 1.8 0  -2 2 0  -1.8 2 0  -1.6 2 0  -1.4 2 0  -1.2 2 0  -1 2 0  -0.8 2 0  -0.6000000000000001 2 0  -0.3999999999999999 2 0  -0.2 2 0  0 2 0  0.2000000000000002 2 0  0.3999999999999999 2 0  0.6000000000000001 2 0  0.7999999999999998 2 0  1 2 0  1.2 2 0  1.4 2 0  1.6 2 0  1.8 2 0  2 2 0  </DataArray>
</Points>
<Cells>
[...]
<PointData  Scalars="f_8"> 
<DataArray  type="Float64"  Name="f_8"  format="ascii">3.6842006291411176e-02  3.6844684069604304e-02  3.6845802529898698e-02  3.6846384799160234e-02  3.6846733590152864e-02  3.6846959584192408e-02  3.6847112909632072e-02  3.6847220685331791e-02  3.6847299716564440e-02  3.6847361651414237e-02  3.6847415501329479e-02  3.6847469142834904e-02  3.6847530450933780e-02  3.6847608430506960e-02  3.6847714710649813e-02  3.6847866046905708e-02  3.6848089432571188e-02  3.6848434682160418e-02  3.6849011726469739e-02  3.6850121922334313e-02  3.6852790131892396e-02  3.6861408242392257e-02  3.6862027307387572e-02  3.6862625735525213e-02  3.6863051235091537e-02  3.6863341100023227e-02  3.6863539573524347e-02  3.6863677603876259e-02  3.6863775708220976e-02  3.6863847944183167e-02  3.6863904577003080e-02  3.6863953769772730e-02  3.6864002745297213e-02  3.6864058724592863e-02  3.6864129864099655e-02  3.6864226413543762e-02  3.6864362399795535e-02  3.6864558290425752e-02  3.6864844992405464e-02  3.6865266881530447e-02  3.6865862135271862e-02  3.6866480722244056e-02  3.6911699295641448e-02  3.6911768659563589e-02  3.6911994410559479e-02  3.6912218772471493e-02  3.6912399737494064e-02  3.6912535507688214e-02  3.6912634637704299e-02  3.6912706730292184e-02  3.6912760161119218e-02  3.6912801915620692e-02  3.6912837978397346e-02  3.6912873830756525e-02  3.6912914955345037e-02  3.6912967341402182e-02  3.6913037985162329e-02  3.6913135288397549e-02  3.6913268921384745e-02  3.6913447614124323e-02  3.6913669991061181e-02  3.6913894890426679e-02  3.6913965636393806e-02  3.6992002931332660e-02  3.6991877611620344e-02  3.6991888618730304e-02  3.6991951774500764e-02  3.6992023156970498e-02  3.6992085472305737e-02  3.6992134336470889e-02  3.6992170672435688e-02  3.6992197243326794e-02  3.6992217265055284e-02  3.6992233951326725e-02  3.6992250447821333e-02  3.6992269905742003e-02  3.6992295557257332e-02  3.6992330656310954e-02  3.6992378038034145e-02  3.6992438758688975e-02  3.6992508673060746e-02  3.6992570880504096e-02  3.6992581992559607e-02  3.6992458289311900e-02  3.7100036142069887e-02  3.7099814547177513e-02  3.7099697995981777e-02  3.7099644937912582e-02  3.7099624124447159e-02  3.7099617083625816e-02  3.7099614389257456e-02  3.7099611869547154e-02  3.7099608094671228e-02  3.7099602960259312e-02  3.7099596954172157e-02  3.7099590787551540e-02  3.7099585180162674e-02  3.7099580647817293e-02  3.7099577140018526e-02  3.7099573318605743e-02  3.7099565158160708e-02  3.7099543450482629e-02  3.7099490012424803e-02  3.7099373900559278e-02  3.7099153749897272e-02  3.7232701684287717e-02  3.7232419843676631e-02  3.7232222171375527e-02  3.7232087332394428e-02  3.7231994821598655e-02  3.7231929163828656e-02  3.7231879980064962e-02  3.7231840698070076e-02  3.7231807218725113e-02  3.7231776914733956e-02  3.7231747958840329e-02  3.7231718874795108e-02  3.7231688196073691e-02  3.7231654126193142e-02  3.7231614094351058e-02  3.7231564090666677e-02  3.7231497671836575e-02  3.7231404628283685e-02  3.7231269678224793e-02  3.7231072487333823e-02  3.7230791796917719e-02  3.7386305111044106e-02  3.7385982101405722e-02  3.7385730832315375e-02  3.7385539361728469e-02  3.7385394067657007e-02  3.7385282731745691e-02  3.7385195576264067e-02  3.7385125161003473e-02  3.7385065865136041e-02  3.7385013320616084e-02  3.7384963922996582e-02  3.7384914428809861e-02  3.7384861603488605e-02  3.7384801870258541e-02  3.7384730910111803e-02  3.7384643175679029e-02  3.7384531325650644e-02  3.7384385701345259e-02  3.7384194206723766e-02  3.7383943314671930e-02  3.7383621114902697e-02  3.7556692082238038e-02  3.7556341763662099e-02  3.7556055909601455e-02  3.7555827057769754e-02  3.7555645619617044e-02  3.7555501846174857e-02  3.7555386894153844e-02  3.7555293170548433e-02  3.7555214263867119e-02  3.7555144693091069e-02  3.7555079600530172e-02  3.7555014440243575e-02  3.7554944672958099e-02  3.7554865461475052e-02  3.7554771360249914e-02  3.7554656009093933e-02  3.7554511880892427e-02  3.7554330207118992e-02  3.7554101310271495e-02  3.7553815652171543e-02  3.7553465782803552e-02  3.7739370595623906e-02  3.7739004977227167e-02  3.7738699599188436e-02  3.7738449180986303e-02  3.7738246379237374e-02  3.7738083051396136e-02  3.7737951147622427e-02  3.7737843180791805e-02  3.7737752371203789e-02  3.7737672586206715e-02  3.7737598167937869e-02  3.7737523707796539e-02  3.7737443800774949e-02  3.7737352800006917e-02  3.7737244591703939e-02  3.7737112423021663e-02  3.7736948840524136e-02  3.7736745831347215e-02  3.7736495286668850e-02  3.7736189884975693e-02  3.7735824348374081e-02  3.7929631948639554e-02  3.7929262216476883e-02  3.7928950407622029e-02  3.7928692252222423e-02  3.7928481537409617e-02  3.7928311012590393e-02  3.7928173138040568e-02  3.7928060570744042e-02  3.7927966395860255e-02  3.7927884162525960e-02  3.7927807790046682e-02  3.7927731399461893e-02  3.7927649111943740e-02  3.7927554847294147e-02  3.7927442155761541e-02  3.7927304124504450e-02  3.7927133413466207e-02  3.7926922486450264e-02  3.7926664095906892e-02  3.7926352029883266e-02  3.7925982015570417e-02  3.8122672107749500e-02  3.8122308915979404e-02  3.8122002679120644e-02  3.8121749433739596e-02  3.8121543330669312e-02  3.8121377429359463e-02  3.8121244392738583e-02  3.8121136968462553e-02  3.8121048241718997e-02  3.8120971699089547e-02  3.8120901159541698e-02  3.8120830625060408e-02  3.8120754094262695e-02  3.8120665376028338e-02  3.8120557940288465e-02  3.8120424849635515e-02  3.8120258824745873e-02  3.8120052500146696e-02  3.8119798909857033e-02  3.8119492187088863e-02  3.8119128361620770e-02  3.8313711969342516e-02  3.8313365485823286e-02  3.8313076158127485e-02  3.8312839760773841e-02  3.8312650156368658e-02  3.8312500188027718e-02  3.8312382417904592e-02  3.8312289607069692e-02  3.8312214944041321e-02  3.8312152079118894e-02  3.8312095029411006e-02  3.8312038008935921e-02  3.8311975225107160e-02  3.8311900675068629e-02  3.8311807975594268e-02  3.8311690268633153e-02  3.8311540258141694e-02  3.8311350444558828e-02  3.8311113614815817e-02  3.8310823593522093e-02  3.8310476145020214e-02  3.8498114093298341e-02  3.8497793989744816e-02  3.8497532540620896e-02  3.8497324587291250e-02  3.8497162973553191e-02  3.8497039770433436e-02  3.8496947143940349e-02  3.8496877814980422e-02  3.8496825202001400e-02  3.8496783361269611e-02  3.8496746814914995e-02  3.8496710324194321e-02  3.8496668641132666e-02  3.8496616259667292e-02  3.8496547187762555e-02  3.8496454774789614e-02  3.8496331653748800e-02  3.8496169891517273e-02  3.8495961464829587e-02  3.8495699151780763e-02  3.8495377778687841e-02  3.8671493258123808e-02  3.8671208765505040e-02  3.8670986199015440e-02  3.8670818390344898e-02  3.8670696141717996e-02  3.8670610095781412e-02  3.8670551760363076e-02  3.8670513848217854e-02  3.8670490218107811e-02  3.8670475634915200e-02  3.8670465469442708e-02  3.8670455388693389e-02  3.8670441048856294e-02  3.8670417787241972e-02  3.8670380309724271e-02  3.8670322387096140e-02  3.8670236613885869e-02  3.8670114355450876e-02  3.8669946108277141e-02  3.8669722564381094e-02  3.8669436528928215e-02  3.8829818160005664e-02  3.8829578357380115e-02  3.8829406507738203e-02  3.8829291375001344e-02  3.8829220123754456e-02  3.8829181200926842e-02  3.8829165332335713e-02  3.8829165452552619e-02  3.8829176233652167e-02  3.8829193554628841e-02  3.8829214032301329e-02  3.8829234625712819e-02  3.8829252283034556e-02  3.8829263586779385e-02  3.8829264353181563e-02  3.8829249155268621e-02  3.8829210783929528e-02  3.8829139774487702e-02  3.8829024354810331e-02  3.8828851500216068e-02  3.8828609914947083e-02  3.8969501521895190e-02  3.8969316273287057e-02  3.8969209539074845e-02  3.8969161706851774e-02  3.8969153816802708e-02  3.8969171444976414e-02  3.8969204837228606e-02  3.8969247777901304e-02  3.8969296385812126e-02  3.8969348191167680e-02  3.8969401500158679e-02  3.8969454955546420e-02  3.8969507191019402e-02  3.8969556483450983e-02  3.8969600306719011e-02  3.8969634683710556e-02  3.8969653244301378e-02  3.8969646000509110e-02  3.8969598212224059e-02  3.8969490585496688e-02  3.8969303349112930e-02  3.9087475398273147e-02  3.9087358267664775e-02  3.9087337487667531e-02  3.9087375750455754e-02  3.9087444675370252e-02  3.9087527226084662e-02  3.9087614527934848e-02  3.9087702536939113e-02  3.9087789793812985e-02  3.9087876130955566e-02  3.9087961980151388e-02  3.9088048002298433e-02  3.9088134852712599e-02  3.9088222944607363e-02  3.9088312072336373e-02  3.9088400704598320e-02  3.9088484662802542e-02  3.9088554825917506e-02  3.9088593738871052e-02  3.9088572435254314e-02  3.9088453157278560e-02  3.9181246238772255e-02  3.9181224345249073e-02  3.9181325433649286e-02  3.9181475506420163e-02  3.9181635192633728e-02  3.9181788449520638e-02  3.9181930778355301e-02  3.9182062585998954e-02  3.9182186100252106e-02  3.9182304094502823e-02  3.9182419433008257e-02  3.9182534962500813e-02  3.9182653528301026e-02  3.9182777989801812e-02  3.9182911109189027e-02  3.9183055087523372e-02  3.9183210262929757e-02  3.9183371956988670e-02  3.9183523683115958e-02  3.9183625136576444e-02  3.9183601061624690e-02  3.9248914955022404e-02  3.9249066406643961e-02  3.9249358117151467e-02  3.9249653470004385e-02  3.9249914437991189e-02  3.9250138034195657e-02  3.9250330749983534e-02  3.9250500406466216e-02  3.9250654053579567e-02  3.9250797725129877e-02  3.9250936699475152e-02  3.9251075870967315e-02  3.9251220135635818e-02  3.9251374777833872e-02  3.9251545844513153e-02  3.9251740409654533e-02  3.9251966327781634e-02  3.9252230097306613e-02  3.9252528531375203e-02  3.9252822551683067e-02  3.9252972370556624e-02  3.9289107016205090e-02  3.9289718958821475e-02  3.9290326532485348e-02  3.9290795226116157e-02  3.9291152403681445e-02  3.9291433373569828e-02  3.9291663351822444e-02  3.9291859327797114e-02  3.9292033147672732e-02  3.9292193629623898e-02  3.9292347913045131e-02  3.9292502387796045e-02  3.9292663445964278e-02  3.9292838235291352e-02  3.9293035594280205e-02  3.9293267414884224e-02  3.9293550787421062e-02  3.9293911146559793e-02  3.9294384218395442e-02  3.9294997598849371e-02  3.9295611460315794e-02  3.9300574106840173e-02  3.9302865820999448e-02  3.9303902836347201e-02  3.9304503289476114e-02  3.9304911327232558e-02  3.9305216960102508e-02  3.9305461319390639e-02  3.9305666910440656e-02  3.9305847888914731e-02  3.9306014241378806e-02  3.9306173826818287e-02  3.9306333590044727e-02  3.9306500476536992e-02  3.9306682348327668e-02  3.9306889200837025e-02  3.9307135211280729e-02  3.9307442933164773e-02  3.9307853612181809e-02  3.9308457632647988e-02  3.9309501024899551e-02  3.9311813833006713e-02  </DataArray> 
</PointData> 
</Piece>
</UnstructuredGrid>
</VTKFile>