<?xml version="1.0"?>
<VTKFile type="UnstructuredGrid"  version="0.1"  >
<UnstructuredGrid>
<Piece  NumberOfPoints="441" NumberOfCells="800">
<Points>
<DataArray  type="Float64"  NumberOfComponents="3"  format="ascii">-2 -2 0  -1.8 -2 0  -1.6 -2 0  -1.4 -2 0  -1.2 -2 0  -1 -2 0  -0.8 -2 0  -0.6000000000000001 -2 0  -0.3999999999999999 -2 0  -0.2 -2 0  0 -2 0  0.2000000000000002 -2 0  0.3999999999999999 -2 0  0.6000000000000001 -2 0  0.7999999999999998 -2 0  1 -2 0  1.2 -2 0  1.4 -2 0  1.6 -2 0  1.8 -2 0  2 -2 0  -2 -1.8 0  -1.8 -1.8 0  -1.6 -1.8 0  -1.4 -1.8 0  -1.2 -1.8 0  -1 -1.8 0  -0.8 -1.8 0  -0.6000000000000001 -1.8 0  -0.3999999999999999 -1.8 0  -0.2 -1.8 0  0 -1.8 0  0.2000000000000002 -1.8 0  0.3999999999999999 -1.8 0  0.6000000000000001 -1.8 0  0.7999999999999998 -1.8 0  1 -1.8 0  1.2 -1.8 0  1.4 -1.8 0  1.6 -1.8 0  1.8 -1.8 0  2 -1.8 0  -2 -1.6 0  -1.8 -1.6 0  -1.6 -1.6 0  -1.4 -1.6 0  -1.2 -1.6 0  -1 -1.6 0  -0.8 -1.6 0  -0.6000000000000001 -1.6 0  -0.3999999999999999 -1.6 0  -0.2 -1.6 0  0 -1.6 0  0.2000000000000002 -1.6 0  0.3999999999999999 -1.6 0  0.6000000000000001 -1.6 0  0.7999999999999998 -1.6 0  1 -1.6 0  1.2 -1.6 0  1.4 -1.6 0  1.6 -1.6 0  1.8 -1.6 0  2 -1.6 0  -2 -1.4 0  -1.8 -1.4 0  -1.6 -1.4 0  -1.4 -1.4 0  -1.2 -1.4 0  -1 -1.4 0  -0.8 -1.4 0  -0.6000000000000001 -1.4 0  -0.3999999999999999 -1.4 0  -0.2 -1.4 0  0 -1.4 0  0.2000000000000002 -1.4 0  0.3999999999999999 -1.4 0  0.6000000000000001 -1.4 0  0.7999999999999998 -1.4 0  1 -1.4 0  1.2 -1.4 0  1.4 -1.4 0  1.6 -1.4 0  1.8 -1.4 0  2 -1.4 0  -2 -1.2 0  -1.8 -1.2 0  -1.6 -1.2 0  -1.4 -1.2 0  -1.2 -1.2 0  -1 -1.2 0  -0.8 -1.2 0  -0.6000000000000001 -1.2 0  -0.3999999999999999 -1.2 0  -0.2 -1.2 0  0 -1.2 0  0.2000000000000002 -1.2 0  0.3999999999999999 -1.2 0  0.6000000000000001 -1.2 0  0.7999999999999998 -1.2 0  1 -1.2 0  1.2 -1.2 0  1.4 -1.2 0  1.6 -1.2 0  1.8 -1.2 0  2 -1.2 0  -2 -1 0  -1.8 -1 0  -1.6 -1 0  -1.4 -1 0  -1.2 -1 0  -1 -1 0  -0.8 -1 0  -0.6000000000000001 -1 0  -0.3999999999999999 -1 0  -0.2 -1 0  0 -1 0  0.2000000000000002 -1 0  0.3999999999999999 -1 0  0.6000000000000001 -1 0  0.7999999999999998 -1 0  1 -1 0  1.2 -1 0  1.4 -1 0  1.6 -1 0  1.8 -1 0  2 -1 0  -2 -0.8 0  -1.8 -0.8 0  -1.6 -0.8 0  -1.4 -0.8 0  -1.2 -0.8 0  -1 -0.8 0  -0.8 -0.8 0  -0.6000000000000001 -0.8 0  -0.3999999999999999 -0.8 0  -0.2 -0.8 0  0 -0.8 0  0.2000000000000002 -0.8 0  0.3999999999999999 -0.8 0  0.6000000000000001 -0.8 0  0.7999999999999998 -0.8 0  1 -0.8 0  1.2 -0.8 0  1.4 -0.8 0  1.6 -0.8 0  1.8 -0.8 0  2 -0.8 0  -2 -0.6000000000000001 0  -1.8 -0.6000000000000001 0  -1.6 -0.6000000000000001 0  -1.4 -0.6000000000000001 0  -1.2 -0.6000000000000001 0  -1 -0.6000000000000001 0  -0.8 -0.6000000000000001 0  -0.6000000000000001 -0.6000000000000001 0  -0.3999999999999999 -0.6000000000000001 0  -0.2 -0.6000000000000001 0  0 -0.6000000000000001 0  0.2000000000000002 -0.6000000000000001 0  0.3999999999999999 -0.6000000000000001 0  0.6000000000000001 -0.6000000000000001 0  0.7999999999999998 -0.6000000000000001 0  1 -0.6000000000000001 0  1.2 -0.6000000000000001 0  1.4 -0.6000000000000001 0  1.6 -0.6000000000000001 0  1.8 -0.6000000000000001 0  2 -0.6000000000000001 0  -2 -0.3999999999999999 0  -1.8 -0.3999999999999999 0  -1.6 -0.3999999999999999 0  -1.4 -0.3999999999999999 0  -1.2 -0.3999999999999999 0  -1 -0.3999999999999999 0  -0.8 -0.3999999999999999 0  -0.6000000000000001 -0.3999999999999999 0  -0.3999999999999999 -0.3999999999999999 0  -0.2 -0.3999999999999999 0  0 -0.3999999999999999 0  0.2000000000000002 -0.3999999999999999 0  0.3999999999999999 -0.3999999999999999 0  0.6000000000000001 -0.3999999999999999 0  0.7999999999999998 -0.3999999999999999 0  1 -0.3999999999999999 0  1.2 -0.3999999999999999 0  1.4 -0.3999999999999999 0  1.6 -0.3999999999999999 0  1.8 -0.3999999999999999 0  2 -0.3999999999999999 0  -2 -0.2 0  -1.8 -0.2 0  -1.6 -0.2 0  -1.4 -0.2 0  -1.2 -0.2 0  -1 -0.2 0  -0.8 -0.2 0  -0.6000000000000001 -0.2 0  -0.3999999999999999 -0.2 0  -0.2 -0.2 0  0 -0.2 0  0.2000000000000002 -0.2 0  0.3999999999999999 -0.2 0  0.6000000000000001 -0.2 0  0.7999999999999998 -0.2 0  1 -0.2 0  1.2 -0.2 0  1.4 -0.2 0  1.6 -0.2 0  1.8 -0.2 0  2 -0.2 0  -2 0 0  -1.8 0 0  -1.6 0 0  -1.4 0 0  -1.2 0 0  -1 0 0  -0.8 0 0  -0.6000000000000001 0 0  -0.3999999999999999 0 0  -0.2 0 0  0 0 0  0.2000000000000002 0 0  0.3999999999999999 0 0  0.6000000000000001 0 0  0.7999999999999998 0 0  1 0 0  1.2 0 0  1.4 0 0  1.6 0 0  1.8 0 0  2 0 0  -2 0.2000000000000002 0  -1.8 0.2000000000000002 0  -1.6 0.2000000000000002 0  -1.4 0.2000000000000002 0  -1.2 0.2000000000000002 0  -1 0.2000000000000002 0  -0.8 0.2000000000000002 0  -0.6000000000000001 0.2000000000000002 0  -0.3999999999999999 0.2000000000000002 0  -0.2 0.2000000000000002 0  0 0.2000000000000002 0  0.2000000000000002 0.2000000000000002 0  0.3999999999999999 0.2000000000000002 0  0.6000000000000001 0.2000000000000002 0  0.7999999999999998 0.2000000000000002 0  1 0.2000000000000002 0  1.2 0.2000000000000002 0  1.4 0.2000000000000002 0  1.6 0.2000000000000002 0  1.8 0.2000000000000002 0  2 0.2000000000000002 0  -2 0.3999999999999999 0  -1.8 0.3999999999999999 0  -1.6 0.3999999999999999 0  -1.4 0.3999999999999999 0  -1.2 0.3999999999999999 0  -1 0.3999999999999999 0  -0.8 0.3999999999999999 0  -0.6000000000000001 0.3999999999999999 0  -0.3999999999999999 0.3999999999999999 0  -0.2 0.3999999999999999 0  0 0.3999999999999999 0  0.2000000000000002 0.3999999999999999 0  0.3999999999999999 0.3999999999999999 0  0.6000000000000001 0.3999999999999999 0  0.7999999999999998 0.3999999999999999 0  1 0.3999999999999999 0  1.2 0.3999999999999999 0  1.4 0.3999999999999999 0  1.6 0.3999999999999999 0  1.8 0.3999999999999999 0  2 0.3999999999999999 0  -2 0.6000000000000001 0  -1.8 0.6000000000000001 0  -1.6 0.6000000000000001 0  -1.4 0.6000000000000001 0  -1.2 0.6000000000000001 0  -1 0.6000000000000001 0  -0.8 0.6000000000000001 0  -0.6000000000000001 0.6000000000000001 0  -0.3999999999999999 0.6000000000000001 0  -0.2 0.6000000000000001 0  0 0.6000000000000001 0  0.2000000000000002 0.6000000000000001 0  0.3999999999999999 0.6000000000000001 0  0.6000000000000001 0.6000000000000001 0  0.7999999999999998 0.6000000000000001 0  1 0.6000000000000001 0  1.2 0.6000000000000001 0  1.4 0.6000000000000001 0  1.6 0.6000000000000001 0  1.8 0.6000000000000001 0  2 0.6000000000000001 0  -2 0.7999999999999998 0  -1.8 0.7999999999999998 0  -1.6 0.7999999999999998 0  -1.4 0.7999999999999998 0  -1.2 0.7999999999999998 0  -1 0.7999999999999998 0  -0.8 0.7999999999999998 0  -0.6000000000000001 0.7999999999999998 0  -0.3999999999999999 0.7999999999999998 0  -0.2 0.7999999999999998 0  0 0.7999999999999998 0  0.2000000000000002 0.7999999999999998 0  0.3999999999999999 0.7999999999999998 0  0.6000000000000001 0.7999999999999998 0  0.7999999999999998 0.7999999999999998 0  1 0.7999999999999998 0  1.2 0.7999999999999998 0  1.4 0.7999999999999998 0  1.6 0.7999999999999998 0  1.8 0.7999999999999998 0  2 0.7999999999999998 0  -2 1 0  -1.8 1 0  -1.6 1 0  -1.4 1 0  -1.2 1 0  -1 1 0  -0.8 1 0  -0.6000000000000001 1 0  -0.3999999999999999 1 0  -0.2 1 0  0 1 0  0.2000000000000002 1 0  0.3999999999999999 1 0  0.6000000000000001 1 0  0.7999999999999998 1 0  1 1 0  1.2 1 0  1.4 1 0  1.6 1 0  1.8 1 0  2 1 0  -2 1.2 0  -1.8 1.2 0  -1.6 1.2 0  -1.4 1.2 0  -1.2 1.2 0  -1 1.2 0  -0.8 1.2 0  -0.6000000000000001 1.2 0  -0.3999999999999999 1.2 0  -0.2 1.2 0  0 1.2 0  0.2000000000000002 1.2 0  0.3999999999999999 1.2 0  0.6000000000000001 1.2 0  0.7999999999999998 1.2 0  1 1.2 0  1.2 1.2 0  1.4 1.2 0  1.6 1.2 0  1.8 1.2 0  2 1.2 0  -2 1.4 0  -1.8 1.4 0  -1.6 1.4 0  -1.4 1.4 0  -1.2 1.4 0  -1 1.4 0  -0.8 1.4 0  -0.6000000000000001 1.4 0  -0.3999999999999999 1.4 0  -0.2 1.4 0  0 1.4 0  0.2000000000000002 1.4 0  0.3999999999999999 1.4 0  0.6000000000000001 1.4 0  0.7999999999999998 1.4 0  1 1.4 0  1.2 1.4 0  1.4 1.4 0  1.6 1.4 0  1.8 1.4 0  2 1.4 0  -2 1.6 0  -1.8 1.6 0  -1.6 1.6 0  -1.4 1.6 0  -1.2 1.6 0  -1 1.6 0  -0.8 1.6 0  -0.6000000000000001 1.6 0  -0.3999999999999999 1.6 0  -0.2 1.6 0  0 1.6 0  0.2000000000000002 1.6 0  0.3999999999999999 1.6 0  0.6000000000000001 1.6 0  0.7999999999999998 1.6 0  1 1.6 0  1.2 1.6 0  1.4 1.6 0  1.6 1.6 0  1.8 1.6 0  2 1.6 0  -2 1.8 0  -1.8 1.8 0  -1.6 1.8 0  -1.4 1.8 0  -1.2 1.8 0  -1 1.8 0  -0.8 1.8 0  -0.6000000000000001 1.8 0  -0.3999999999999999 1.8 0  -0.2 1.8 0  0 1.8 0  0.2000000000000002 1.8 0  0.3999999999999999 1.8 0  0.6000000000000001 1.8 0  0.7999999999999998 1.8 0  1 1.8 0  1.2 1.8 0  1.4 1.8 0  1.6 1.8 0  1.8 1.8 0  2 1.8 0  -2 2 0  -1.8 2 0  -1.6 2 0  -1.4 2 0  -1.2 2 0  -1 2 0  -0.8 2 0  -0.6000000000000001 2 0  -0.3999999999999999 2 0  -0.2 2 0  0 2 0  0.2000000000000002 2 0  0.3999999999999999 2 0  0.6000000000000001 2 0  0.7999999999999998 2 0  1 2 0  1.2 2 0  1.4 2 0  1.6 2 0  1.8 2 0  2 2 0  </DataArray>
</Points>
<Cells>
[...]
<PointData  Scalars="f_8"> 
<DataArray  type="Float64"  Name="f_8"  format="ascii">4.4696999123461401e-01  4.4479754385940851e-01  4.3939631988459893e-01  4.3087459460978089e-01  4.1944527922773250e-01  4.0541031988266724e-01  3.8914534903285686e-01  3.7108401387407547e-01  3.5170200633199267e-01  3.3150113574162010e-01  3.1099391944864635e-01  2.9068918088338186e-01  2.7107908226896787e-01  2.5262791321182437e-01  2.3576283524975816e-01  2.2086667211036518e-01  2.0827276207787931e-01  1.9826188156194188e-01  1.9106134501754884e-01  1.8684664108177421e-01  1.8574646931120295e-01  4.4598842619016293e-01  4.4425397360016927e-01  4.3913823880362929e-01  4.3080935186019614e-01  4.1951410930109728e-01  4.0557367570705605e-01  3.8937467189110903e-01  3.7135716797925061e-01  3.5200078430854176e-01  3.3180990663361326e-01  3.1129886689695230e-01  2.9097778922689405e-01  2.7133963881685624e-01  2.5284883816108283e-01  2.3593163663394889e-01  2.2096824311383639e-01  2.0828656217874855e-01  1.9815721021570762e-01  1.9078931375983371e-01  1.8632637237035632e-01  1.8484113041564360e-01  4.4575931385013112e-01  4.4405754883449883e-01  4.3900252430102971e-01  4.3074138285031216e-01  4.1951039849022159e-01  4.0562561467660324e-01  3.8947131854176309e-01  3.7148670025928660e-01  3.5215127629650045e-01  3.3196975353684227e-01  3.1145701530788683e-01  2.9112384525599694e-01  2.7146389100909291e-01  2.5294222537272110e-01  2.3598570654995943e-01  2.2097518804768887e-01  2.0823950005029765e-01  1.9805103278594369e-01  1.9062271488351604e-01  1.8610621584885900e-01  1.8459134253483142e-01  4.4568992836345978e-01  4.4399422287637297e-01  4.3895539057522515e-01  4.3071667298128330e-01  4.1951053593085380e-01  4.0564988063099572e-01  3.8951663571909195e-01  3.7154836043697431e-01  3.5222355915854947e-01  3.3204643261470562e-01  3.1153176409004130e-01  2.9119056234879143e-01  2.7151696634030664e-01  2.5297677320257450e-01  2.3599779615860811e-01  2.2096210825654031e-01  2.0820009580316975e-01  1.9798614317216962e-01  1.9053570559230795e-01  1.8600349997834509e-01  1.8448254938620615e-01  4.4567229339071246e-01  4.4397842174149305e-01  4.3894485374584546e-01  4.3071394139178482e-01  4.1951698012099320e-01  4.0566565033724600e-01  3.8954076769588314e-01  3.7157897977189069e-01  3.5225812579636040e-01  3.3208200047666525e-01  3.1156523260006702e-01  2.9121890940528489e-01  2.7153745839142607e-01  2.5298715248799508e-01  2.3599644734661179e-01  2.2094820615703709e-01  2.0817373171422296e-01  1.9794841867587301e-01  1.9048876860544872e-01  1.8595047984790458e-01  1.8442733268379322e-01  4.4567155907763578e-01  4.4397830997966375e-01  4.3894653161984337e-01  4.3071830838286101e-01  4.1952454259568983e-01  4.0567646074119751e-01  3.8955442549656555e-01  3.7159468305319959e-01  3.5227475935940800e-01  3.3209824639758218e-01  3.1157969094807303e-01  2.9123021923649889e-01  2.7154441156199971e-01  2.5298879484795006e-01  2.3599216319450822e-01  2.2093778228522604e-01  2.0815739694302005e-01  1.9792685370554056e-01  1.9046307995531778e-01  1.8592213182788189e-01  1.8439803463423982e-01  4.4567490500573881e-01  4.4398185957980368e-01  4.3895065429830010e-01  4.3072328182750907e-01  4.1953050503143752e-01  4.0568338301289120e-01  3.8956210510890060e-01  3.7160275899881656e-01  3.5228274425675959e-01  3.3210557116956868e-01  3.1158575683431911e-01  2.9123445210680771e-01  2.7154631404183216e-01  2.5298799246654236e-01  2.3598844146370754e-01  2.2093111222299619e-01  2.0814794706356363e-01  1.9791498699298254e-01  1.9044933498997313e-01  1.8590718826236280e-01  1.8438266479963586e-01  4.4567807011483179e-01  4.4398508219981547e-01  4.3895403262884414e-01  4.3072688180763685e-01  4.1953434315786192e-01  4.0568741577415440e-01  3.8956622622116921e-01  3.7160680452656647e-01  3.5228650474632978e-01  3.3210880922229713e-01  3.1158822813200887e-01  2.9123592775543850e-01  2.7154660216803889e-01  2.5298695722177933e-01  2.3598601790337095e-01  2.2092731588741080e-01  2.0814287747143545e-01  1.9790882466424023e-01  1.9044233205730715e-01  1.8589965322279295e-01  1.8437494249139069e-01  4.4568013202005474e-01  4.4398715486650725e-01  4.3895613225392949e-01  4.3072901354066340e-01  4.1953649525280273e-01  4.0568955601540485e-01  3.8956830109647306e-01  3.7160874125433108e-01  3.5228821591568332e-01  3.3211019951728588e-01  3.1158920241372595e-01  2.9123639967633469e-01  2.7154650248509271e-01  2.5298624104397788e-01  2.3598467023436565e-01  2.2092535498707927e-01  2.0814035574470696e-01  1.9790582698068665e-01  1.9043897160274192e-01  1.8589606517707444e-01  1.8437127600457379e-01  4.4568127317893064e-01  4.4398829478918256e-01  4.3895726782173733e-01  4.3073013798651055e-01  4.1953759626621184e-01  4.0569061463621503e-01  3.8956929156756032e-01  3.7160963188049900e-01  3.5228897085267413e-01  3.3211078130805216e-01  3.1158957501046569e-01  2.9123653164246893e-01  2.7154637006212007e-01  2.5298583079044340e-01  2.3598398099178017e-01  2.2092439899307753e-01  2.0813915878968087e-01  1.9790442758402438e-01  1.9043741926310612e-01  1.8589441782310379e-01  1.8436959683363499e-01  4.4568190512202555e-01  4.4398892428054371e-01  4.3895788983753503e-01  4.3073074608378181e-01  4.1953818186961128e-01  4.0569116664993848e-01  3.8956979638256511e-01  3.7161007379729771e-01  3.5228933288919584e-01  3.3211104631692906e-01  3.1158972699573595e-01  2.9123655714522928e-01  2.7154625947909111e-01  2.5298557949784173e-01  2.3598359016701323e-01  2.2092387605548652e-01  2.0813851741546374e-01  1.9790368728632329e-01  1.9043660456316638e-01  1.8589355706998212e-01  1.8436872075618319e-01  4.4568242503114069e-01  4.4398944336355861e-01  4.3895840482020909e-01  4.3073125218869579e-01  4.1953867207695739e-01  4.0569163128277047e-01  3.8957022308469424e-01  3.7161044792313969e-01  3.5228963827572513e-01  3.3211126636461613e-01  3.1158984595256284e-01  2.9123656146827287e-01  2.7154613914245801e-01  2.5298532912298188e-01  2.3598320986953536e-01  2.2092337192880410e-01  2.0813790160301729e-01  1.9790297762798581e-01  1.9043582383525726e-01  1.8589273186988717e-01  1.8436788010993610e-01  4.4568323001509286e-01  4.4399025115654145e-01  4.3895921733184945e-01  4.3073206743552422e-01  4.1953948224779730e-01  4.0569242159584429e-01  3.8957097159115905e-01  3.7161112629238890e-01  3.5229021348231310e-01  3.3211170309930116e-01  3.1159010951002342e-01  2.9123662082553264e-01  2.7154596993437213e-01  2.5298491624045022e-01  2.3598254944684857e-01  2.2092247254275788e-01  2.0813678457271917e-01  1.9790167637605710e-01  1.9043438234446183e-01  1.8589120234025047e-01  1.8436631998582226e-01  4.4568476463179035e-01  4.4399180024410750e-01  4.3896080412529537e-01  4.3073370365987079e-01  4.1954116238899331e-01  4.0569411947950196e-01  3.8957263966881583e-01  3.7161269768204380e-01  3.5229160648788072e-01  3.3211282768019423e-01  3.1159087500607779e-01  2.9123694416587215e-01  2.7154578356148218e-01  2.5298417504615817e-01  2.3598123612734773e-01  2.2092060092017279e-01  2.0813440059058955e-01  1.9789885664964349e-01  1.9043123033037546e-01  1.8588784237859626e-01  1.8436288965148695e-01  4.4568736663491360e-01  4.4399445883339311e-01  4.3896362263195188e-01  4.3073675196836653e-01  4.1954446056169681e-01  4.0569762814025168e-01  3.8957625806559482e-01  3.7161626929832686e-01  3.5229493121000216e-01  3.3211567893197080e-01  3.1159301994121796e-01  2.9123816492724330e-01  2.7154589771480275e-01  2.5298305351053990e-01  2.3597881720277086e-01  2.2091689931849204e-01  2.0812951070201524e-01  1.9789294963271342e-01  1.9042454502457348e-01  1.8588067052429161e-01  1.8435555645223234e-01  4.4569049147262391e-01  4.4399778049321970e-01  4.3896750523362871e-01  4.3074146393174340e-01  4.1955012989441598e-01  4.0570421789897376e-01  3.8958356328354987e-01  3.7162393363666574e-01  3.5230247959618116e-01  3.3212256144472230e-01  3.1159866198012454e-01  2.9124201900957164e-01  2.7154749282866913e-01  2.5298203861975255e-01  2.3597499610392114e-01  2.2091025452957219e-01  2.0812021443615161e-01  1.9788136029642603e-01  1.9041118827702910e-01  1.8586620498196499e-01  1.8434072579920227e-01  4.4569049305259734e-01  4.4399840790310841e-01  4.3896989427101707e-01  4.3074647004063538e-01  4.1955821277497907e-01  4.0571539053389089e-01  3.8959740028047130e-01  3.7163962688978652e-01  3.5231892710345492e-01  3.3213847575600808e-01  3.1161268678866866e-01  2.9125284490924680e-01  2.7155396564668910e-01  2.5298325560444712e-01  2.3597038633527398e-01  2.2089964008280688e-01  2.0810384809077703e-01  1.9785993424517481e-01  1.9038580708645308e-01  1.8583831633492712e-01  1.8431200631360184e-01  4.4567521400884691e-01  4.4398504136373185e-01  4.3896177774624351e-01  4.3074601972947868e-01  4.1956667659070018e-01  4.0573282098842739e-01  3.8962277437477749e-01  3.7167105052490307e-01  3.5235387841076465e-01  3.3217405710130410e-01  3.1164586719604853e-01  2.9128068350401526e-01  2.7157381302639810e-01  2.5299293415749541e-01  2.3596835234837729e-01  2.2088512947475047e-01  2.0807700286381070e-01  1.9782189718731766e-01  1.9033875731249694e-01  1.8578539954444981e-01  1.8425709913216562e-01  4.4561011590709726e-01  4.4392633529816911e-01  4.3891928504937477e-01  4.3072565668922908e-01  4.1957063262359628e-01  4.0576023961743329e-01  3.8967052535189955e-01  3.7173443786453286e-01  3.5242723921756480e-01  3.3225124954122803e-01  3.1172066134063625e-01  2.9134707410170696e-01  2.7162627644099890e-01  2.5302665576820405e-01  2.3597945611130935e-01  2.2087094680377523e-01  2.0803641983469759e-01  1.9775580904149506e-01  1.9025061945816002e-01  1.8568175698407047e-01  1.8414772356833226e-01  4.4538704605702834e-01  4.4373679362551244e-01  4.3878990279545005e-01  4.3066297841589252e-01  4.1957110482028559e-01  4.0581536957004538e-01  3.8976954781345802e-01  3.7186571069282798e-01  3.5257899307843293e-01  3.3241200205839266e-01  3.1187944358282460e-01  2.9149353762857083e-01  2.7175071565182790e-01  2.5311997505107731e-01  2.3603312824524425e-01  2.2087705212085579e-01  2.0798794056004430e-01  1.9764751420176083e-01  1.9008117922731405e-01  1.8545829631584021e-01  1.8389509599505674e-01  4.4441688840138283e-01  4.4319775263627947e-01  4.3853261049580322e-01  4.3059669211837659e-01  4.1963823807684553e-01  4.0597710235278006e-01  3.8999775211222626e-01  3.7213847623534491e-01  3.5287819065653947e-01  3.3272197255735364e-01  3.1218626823243506e-01  2.9178455003249920e-01  2.7201402356207710e-01  2.5334380102159981e-01  2.3620476241766922e-01  2.2098112803936015e-01  2.0800356517911131e-01  1.9754344343326935e-01  1.8980761448081052e-01  1.8493277598255814e-01  1.8297799226846781e-01  </DataArray> 
</PointData> 
</Piece>
</UnstructuredGrid>
</VTKFile>