<?xml version="1.0"?>
<VTKFile type="UnstructuredGrid"  version="0.1"  >
<UnstructuredGrid>
<Piece  NumberOfPoints="441" NumberOfCells="800">
<Points>
<DataArray  type="Float64"  NumberOfComponents="3"  format="ascii">-2 -2 0  -1.8 -2 0  -1.6 -2 0  -1.4 -2 0  -1.2 -2 0  -1 -2 0  -0.8 -2 0  -0.6000000000000001 -2 0  -0.3999999999999999 -2 0  -0.2 -2 0  0 -2 0  0.2000000000000002 -2 0  0.3999999999999999 -2 0  0.6000000000000001 -2 0  0.7999999999999998 -2 0  1 -2 0  1.2 -2 0  1.4 -2 0  1.6 -2 0  1.8 -2 0  2 -2 0  -2 -1.8 0  -1.8 -1.8 0  -1.6 -1.8 0  -1.4 -1.8 0  -1.2 -1.8 0  -1 -1.8 0  -0.8 -1.8 0  -0.6000000000000001 -1.8 0  -0.3999999999999999 -1.8 0  -0.2 -1.8 0  0 -1.8 0  0.2000000000000002 -1.8 0  0.3999999999999999 -1.8 0  0.6000000000000001 -1.8 0  0.7999999999999998 -1.8 0  1 -1.8 0  1.2 -1.8 0  1.4 -1.8 0  1.6 -1.8 0  1.8 -1.8 0  2 -1.8 0  -2 -1.6 0  -1.8 -1.6 0  -1.6 -1.6 0  -1.4 -1.6 0  -1.2 -1.6 0  -1 -1.6 0  -0.8 -1.6 0  -0.6000000000000001 -1.6 0  -0.3999999999999999 -1.6 0  -0.2 -1.6 0  0 -1.6 0  0.2000000000000002 -1.6 0  0.3999999999999999 -1.6 0  0.6000000000000001 -1.6 0  0.7999999999999998 -1.6 0  1 -1.6 0  1.2 -1.6 0  1.4 -1.6 0  1.6 -1.6 0  1.8 -1.6 0  2 -1.6 0  -2 -1.4 0  -1.8 -1.4 0  -1.6 -1.4 0  -1.4 -1.4 0  -1.2 -1.4 0  -1 -1.4 0  -0.8 -1.4 0  -0.6000000000000001 -1.4 0  -0.3999999999999999 -1.4 0  -0.2 -1.4 0  0 -1.4 0  0.2000000000000002 -1.4 0  0.3999999999999999 -1.4 0  0.6000000000000001 -1.4 0  0.7999999999999998 -1.4 0  1 -1.4 0  1.2 -1.4 0  1.4 -1.4 0  1.6 -1.4 0  1.8 -1.4 0  2 -1.4 0  -2 -1.2 0  -1.8 -1.2 0  -1.6 -1.2 0  -1.4 -1.2 0  -1.2 -1.2 0  -1 -1.2 0  -0.8 -1.2 0  -0.6000000000000001 -1.2 0  -0.3999999999999999 -1.2 0  -0.2 -1.2 0  0 -1.2 0  0.2000000000000002 -1.2 0  0.3999999999999999 -1.2 0  0.6000000000000001 -1.2 0  0.7999999999999998 -1.2 0  1 -1.2 0  1.2 -1.2 0  1.4 -1.2 0  1.6 -1.2 0  1.8 -1.2 0  2 -1.2 0  -2 -1 0  -1.8 -1 0  -1.6 -1 0  -1.4 -1 0  -1.2 -1 0  -1 -1 0  -0.8 -1 0  -0.6000000000000001 -1 0  -0.3999999999999999 -1 0  -0.2 -1 0  0 -1 0  0.2000000000000002 -1 0  0.3999999999999999 -1 0  0.6000000000000001 -1 0  0.7999999999999998 -1 0  1 -1 0  1.2 -1 0  1.4 -1 0  1.6 -1 0  1.8 -1 0  2 -1 0  -2 -0.8 0  -1.8 -0.8 0  -1.6 -0.8 0  -1.4 -0.8 0  -1.2 -0.8 0  -1 -0.8 0  -0.8 -0.8 0  -0.6000000000000001 -0.8 0  -0.3999999999999999 -0.8 0  -0.2 -0.8 0  0 -0.8 0  0.2000000000000002 -0.8 0  0.3999999999999999 -0.8 0  0.6000000000000001 -0.8 0  0.7999999999999998 -0.8 0  1 -0.8 0  1.2 -0.8 0  1.4 -0.8 0  1.6 -0.8 0  1.8 -0.8 0  2 -0.8 0  -2 -0.6000000000000001 0  -1.8 -0.6000000000000001 0  -1.6 -0.6000000000000001 0  -1.4 -0.6000000000000001 0  -1.2 -0.6000000000000001 0  -1 -0.6000000000000001 0  -0.8 -0.6000000000000001 0  -0.6000000000000001 -0.6000000000000001 0  -0.3999999999999999 -0.6000000000000001 0  -0.2 -0.6000000000000001 0  0 -0.6000000000000001 0  0.2000000000000002 -0.6000000000000001 0  0.3999999999999999 -0.6000000000000001 0  0.6000000000000001 -0.6000000000000001 0  0.7999999999999998 -0.6000000000000001 0  1 -0.6000000000000001 0  1.2 -0.6000000000000001 0  1.4 -0.6000000000000001 0  1.6 -0.6000000000000001 0  1.8 -0.6000000000000001 0  2 -0.6000000000000001 0  -2 -0.3999999999999999 0  -1.8 -0.3999999999999999 0  -1.6 -0.3999999999999999 0  -1.4 -0.3999999999999999 0  -1.2 -0.3999999999999999 0  -1 -0.3999999999999999 0  -0.8 -0.3999999999999999 0  -0.6000000000000001 -0.3999999999999999 0  -0.3999999999999999 -0.3999999999999999 0  -0.2 -0.3999999999999999 0  0 -0.3999999999999999 0  0.2000000000000002 -0.3999999999999999 0  0.3999999999999999 -0.3999999999999999 0  0.6000000000000001 -0.3999999999999999 0  0.7999999999999998 -0.3999999999999999 0  1 -0.3999999999999999 0  1.2 -0.3999999999999999 0  1.4 -0.3999999999999999 0  1.6 -0.3999999999999999 0  1.8 -0.3999999999999999 0  2 -0.3999999999999999 0  -2 -0.2 0  -1.8 -0.2 0  -1.6 -0.2 0  -1.4 -0.2 0  -1.2 -0.2 0  -1 -0.2 0  -0.8 -0.2 0  -0.6000000000000001 -0.2 0  -0.3999999999999999 -0.2 0  -0.2 -0.2 0  0 -0.2 0  0.2000000000000002 -0.2 0  0.3999999999999999 -0.2 0  0.6000000000000001 -0.2 0  0.7999999999999998 -0.2 0  1 -0.2 0  1.2 -0.2 0  1.4 -0.2 0  1.6 -0.2 0  1.8 -0.2 0  2 -0.2 0  -2 0 0  -1.8 0 0  -1.6 0 0  -1.4 0 0  -1.2 0 0  -1 0 0  -0.8 0 0  -0.6000000000000001 0 0  -0.3999999999999999 0 0  -0.2 0 0  0 0 0  0.2000000000000002 0 0  0.3999999999999999 0 0  0.6000000000000001 0 0  0.7999999999999998 0 0  1 0 0  1.2 0 0  1.4 0 0  1.6 0 0  1.8 0 0  2 0 0  -2 0.2000000000000002 0  -1.8 0.2000000000000002 0  -1.6 0.2000000000000002 0  -1.4 0.2000000000000002 0  -1.2 0.2000000000000002 0  -1 0.2000000000000002 0  -0.8 0.2000000000000002 0  -0.6000000000000001 0.2000000000000002 0  -0.3999999999999999 0.2000000000000002 0  -0.2 0.2000000000000002 0  0 0.2000000000000002 0  0.2000000000000002 0.2000000000000002 0  0.3999999999999999 0.2000000000000002 0  0.6000000000000001 0.2000000000000002 0  0.7999999999999998 0.2000000000000002 0  1 0.2000000000000002 0  1.2 0.2000000000000002 0  1.4 0.2000000000000002 0  1.6 0.2000000000000002 0  1.8 0.2000000000000002 0  2 0.2000000000000002 0  -2 0.3999999999999999 0  -1.8 0.3999999999999999 0  -1.6 0.3999999999999999 0  -1.4 0.3999999999999999 0  -1.2 0.3999999999999999 0  -1 0.3999999999999999 0  -0.8 0.3999999999999999 0  -0.6000000000000001 0.3999999999999999 0  -0.3999999999999999 0.3999999999999999 0  -0.2 0.3999999999999999 0  0 0.3999999999999999 0  0.2000000000000002 0.3999999999999999 0  0.3999999999999999 0.3999999999999999 0  0.6000000000000001 0.3999999999999999 0  0.7999999999999998 0.3999999999999999 0  1 0.3999999999999999 0  1.2 0.3999999999999999 0  1.4 0.3999999999999999 0  1.6 0.3999999999999999 0  1.8 0.3999999999999999 0  2 0.3999999999999999 0  -2 0.6000000000000001 0  -1.8 0.6000000000000001 0  -1.6 0.6000000000000001 0  -1.4 0.6000000000000001 0  -1.2 0.6000000000000001 0  -1 0.6000000000000001 0  -0.8 0.6000000000000001 0  -0.6000000000000001 0.6000000000000001 0  -0.3999999999999999 0.6000000000000001 0  -0.2 0.6000000000000001 0  0 0.6000000000000001 0  0.2000000000000002 0.6000000000000001 0  0.3999999999999999 0.6000000000000001 0  0.6000000000000001 0.6000000000000001 0  0.7999999999999998 0.6000000000000001 0  1 0.6000000000000001 0  1.2 0.6000000000000001 0  1.4 0.6000000000000001 0  1.6 0.6000000000000001 0  1.8 0.6000000000000001 0  2 0.6000000000000001 0  -2 0.7999999999999998 0  -1.8 0.7999999999999998 0  -1.6 0.7999999999999998 0  -1.4 0.7999999999999998 0  -1.2 0.7999999999999998 0  -1 0.7999999999999998 0  -0.8 0.7999999999999998 0  -0.6000000000000001 0.7999999999999998 0  -0.3999999999999999 0.7999999999999998 0  -0.2 0.7999999999999998 0  0 0.7999999999999998 0  0.2000000000000002 0.7999999999999998 0  0.3999999999999999 0.7999999999999998 0  0.6000000000000001 0.7999999999999998 0  0.7999999999999998 0.7999999999999998 0  1 0.7999999999999998 0  1.2 0.7999999999999998 0  1.4 0.7999999999999998 0  1.6 0.7999999999999998 0  1.8 0.7999999999999998 0  2 0.7999999999999998 0  -2 1 0  -1.8 1 0  -1.6 1 0  -1.4 1 0  -1.2 1 0  -1 1 0  -0.8 1 0  -0.6000000000000001 1 0  -0.3999999999999999 1 0  -0.2 1 0  0 1 0  0.2000000000000002 1 0  0.3999999999999999 1 0  0.6000000000000001 1 0  0.7999999999999998 1 0  1 1 0  1.2 1 0  1.4 1 0  1.6 1 0  1.8 1 0  2 1 0  -2 1.2 0  -1.8 1.2 0  -1.6 1.2 0  -1.4 1.2 0  -1.2 1.2 0  -1 1.2 0  -0.8 1.2 0  -0.6000000000000001 1.2 0  -0.3999999999999999 1.2 0  -0.2 1.2 0  0 1.2 0  0.2000000000000002 1.2 0  0.3999999999999999 1.2 0  0.6000000000000001 1.2 0  0.7999999999999998 1.2 0  1 1.2 0  1.2 1.2 0  1.4 1.2 0  1.6 1.2 0  1.8 1.2 0  2 1.2 0  -2 1.4 0  -1.8 1.4 0  -1.6 1.4 0  -1.4 1.4 0  -1.2 1.4 0  -1 1.4 0  -0.8 1.4 0  -0.6000000000000001 1.4 0  -0.3999999999999999 1.4 0  -0.2 1.4 0  0 1.4 0  0.2000000000000002 1.4 0  0.3999999999999999 1.4 0  0.6000000000000001 1.4 0  0.7999999999999998 1.4 0  1 1.4 0  1.2 1.4 0  1.4 1.4 0  1.6 1.4 0  1.8 1.4 0  2 1.4 0  -2 1.6 0  -1.8 1.6 0  -1.6 1.6 0  -1.4 1.6 0  -1.2 1.6 0  -1 1.6 0  -0.8 1.6 0  -0.6000000000000001 1.6 0  -0.3999999999999999 1.6 0  -0.2 1.6 0  0 1.6 0  0.2000000000000002 1.6 0  0.3999999999999999 1.6 0  0.6000000000000001 1.6 0  0.7999999999999998 1.6 0  1 1.6 0  1.2 1.6 0  1.4 1.6 0  1.6 1.6 0  1.8 1.6 0  2 1.6 0  -2 1.8 0  -1.8 1.8 0  -1.6 1.8 0  -1.4 1.8 0  -1.2 1.8 0  -1 1.8 0  -0.8 1.8 0  -0.6000000000000001 1.8 0  -0.3999999999999999 1.8 0  -0.2 1.8 0  0 1.8 0  0.2000000000000002 1.8 0  0.3999999999999999 1.8 0  0.6000000000000001 1.8 0  0.7999999999999998 1.8 0  1 1.8 0  1.2 1.8 0  1.4 1.8 0  1.6 1.8 0  1.8 1.8 0  2 1.8 0  -2 2 0  -1.8 2 0  -1.6 2 0  -1.4 2 0  -1.2 2 0  -1 2 0  -0.8 2 0  -0.6000000000000001 2 0  -0.3999999999999999 2 0  -0.2 2 0  0 2 0  0.2000000000000002 2 0  0.3999999999999999 2 0  0.6000000000000001 2 0  0.7999999999999998 2 0  1 2 0  1.2 2 0  1.4 2 0  1.6 2 0  1.8 2 0  2 2 0  </DataArray>
</Points>
<Cells>
[...]
<PointData  Scalars="f_8"> 
<DataArray  type="Float64"  Name="f_8"  format="ascii">6.9298669304733856e-02  6.8479916229666538e-02  6.6466199765320824e-02  6.3353217562645170e-02  5.9298033624778250e-02  5.4502181032947940e-02  4.9192966499199416e-02  4.3604623123664484e-02  3.7961052044475710e-02  3.2461650737467963e-02  2.7271257138125487e-02  2.2514664783608116e-02  1.8275597803908476e-02  1.4599565639236027e-02  1.1499701646391552e-02  8.9645459321125043e-03  6.9667468116755039e-03  5.4717910024271385e-03  4.4460852023006491e-03  3.8639618709595510e-03  3.7134492506093976e-03  6.8967343485038621e-02  6.8317170413695491e-02  6.6417244318325283e-02  6.3381096169848813e-02  5.9375671983341177e-02  5.4608414413109756e-02  4.9310776915764735e-02  4.3720510711777578e-02  3.8064884811646632e-02  3.2546606003987823e-02  2.7333649566275171e-02  2.2553579829542182e-02  1.8292329168588653e-02  1.4596897341999135e-02  1.1481083965467343e-02  8.9331931166328257e-03  6.9246348253594525e-03  5.4184524765246338e-03  4.3769732850296259e-03  3.7679538943743863e-03  3.5687229167236066e-03  6.8922911547342328e-02  6.8285166803468078e-02  6.6408219117995590e-02  6.3396172087016797e-02  5.9410842811103308e-02  5.4657171970685342e-02  4.9365829351078618e-02  4.3774948469246552e-02  3.8112948315400463e-02  3.2584121766742143e-02  2.7358175806385141e-02  2.2564306039535475e-02  1.8289786398179814e-02  1.4582546056086580e-02  1.1456849780250081e-02  8.9010184287777565e-03  6.8861116445385444e-03  5.3746080474950421e-03  4.3283098101931155e-03  3.7149197649515636e-03  3.5129543321145867e-03  6.8930607719061412e-02  6.8294618331004101e-02  6.6422055636023228e-02  6.3415316475266326e-02  5.9434580657632727e-02  5.4683591670904676e-02  4.9392382491583696e-02  4.3798990005260358e-02  3.8132175460609492e-02  3.2596869134346743e-02  2.7363554117380250e-02  2.2562195851879976e-02  1.8280716448906262e-02  1.4567496952971513e-02  1.1437027740910041e-02  8.8776415447062353e-03  6.8602445710286624e-03  5.3470718260338569e-03  4.2996819871949704e-03  3.6856228397377758e-03  3.4833977539574733e-03  6.8945201166008663e-02  6.8309423257166810e-02  6.6437282933140301e-02  6.3430868591353703e-02  5.9449997791888788e-02  5.4698118735562899e-02  4.9405112483046937e-02  4.3809034442413672e-02  3.8138819441719894e-02  3.2599681251027551e-02  2.7362436235563128e-02  2.2557371868700857e-02  1.8272670482423009e-02  1.4556878734817702e-02  1.1424545877126609e-02  8.8639642309987533e-03  6.8459232980428589e-03  5.3324977671857328e-03  4.2850781247002348e-03  3.6710681148776577e-03  3.4688732372251340e-03  6.8955274399041325e-02  6.8319434524453090e-02  6.6447012983644763e-02  6.3440052648614464e-02  5.9458322524461066e-02  5.4705244797506325e-02  4.9410715980934834e-02  4.3812855389925437e-02  3.8140704396365029e-02  3.2599609924963316e-02  2.7360526522765844e-02  2.2553862955463438e-02  1.8267888244739079e-02  1.4551190627649480e-02  1.1418313644814495e-02  8.8575021457830121e-03  6.8394677345285934e-03  5.3261913673134592e-03  4.2789691987082327e-03  3.6651237178594734e-03  3.4630028524500686e-03  6.8960165943010979e-02  6.8324255766242278e-02  6.6451594847816459e-02  6.3444227932912572e-02  5.9461933186306805e-02  5.4708153046169147e-02  4.9412817552215660e-02  4.3814092078196407e-02  3.8141072640874921e-02  3.2599162972604005e-02  2.7359369099767449e-02  2.2552139015007362e-02  1.8265763765916918e-02  1.4548834301921396e-02  1.1415878468398481e-02  8.8551105007151423e-03  6.8372016883710115e-03  5.3240889139072548e-03  4.2770262432199474e-03  3.6633009436866353e-03  3.4612362556869412e-03  6.8961958983438806e-02  6.8326010169599327e-02  6.6453235976801583e-02  6.3445686576672572e-02  5.9463150169227950e-02  5.4709083781462726e-02  4.9413435970311066e-02  4.3814393201359277e-02  3.8141073140923902e-02  3.2598899339989225e-02  2.7358893488819050e-02  2.2551513284661623e-02  1.8265052580459566e-02  1.4548098305182312e-02  1.1415168472865642e-02  8.8544633785495770e-03  6.8366382968630705e-03  5.3236140310920993e-03  4.2766302132023204e-03  3.6629625829625420e-03  3.4609265546370000e-03  6.8962444733699918e-02  6.8326480002826692e-02  6.6453666780531204e-02  6.3446057985639084e-02  5.9463446245251801e-02  5.4709294381044743e-02  4.9413557618714278e-02  4.3814429315726697e-02  3.8141033515569127e-02  3.2598798916750119e-02  2.7358750559537928e-02  2.2551347378212711e-02  1.8264882343362723e-02  1.4547939676416231e-02  1.1415033382509704e-02  8.8543590862741363e-03  6.8365673605937007e-03  5.3235747899656703e-03  4.2766176057919391e-03  3.6629691114401972e-03  3.4609432426617568e-03  6.8962531531685439e-02  6.8326561624013404e-02  6.6453738345079727e-02  6.3446115537167336e-02  5.9463487150230268e-02  5.4709317591882842e-02  4.9413563759117339e-02  4.3814420567507527e-02  3.8141013314650113e-02  3.2598771497978858e-02  2.7358720417963674e-02  2.2551318731039285e-02  1.8264858676575041e-02  1.4547923442046366e-02  1.1415025880548962e-02  8.8543605270924863e-03  6.8365770687110541e-03  5.3235914863336686e-03  4.2766396983019003e-03  3.6629949327370748e-03  3.4609711969618997e-03  6.8962535385099402e-02  6.8326564295568520e-02  6.6453739367494213e-02  6.3446114645446583e-02  5.9463484333344523e-02  5.4709313108591631e-02  4.9413558112518081e-02  4.3814414439850180e-02  3.8141007471517559e-02  3.2598766677505969e-02  2.7358717224676286e-02  2.2551317553869538e-02  1.8264859646281755e-02  1.4547926435400430e-02  1.1415030568992684e-02  8.8543664584287210e-03  6.8365837638713978e-03  5.3235985308379211e-03  4.2766468100088502e-03  3.6630019931905237e-03  3.4609782415834255e-03  6.8962526652829953e-02  6.8326555877606401e-02  6.6453731236889246e-02  6.3446106778039663e-02  5.9463476746190680e-02  5.4709305880776826e-02  4.9413551384911436e-02  4.3814408395246272e-02  3.8141002301049054e-02  3.2598762542149815e-02  2.7358714221433031e-02  2.2551315694586169e-02  1.8264858853553789e-02  1.4547926555488259e-02  1.1415031397430228e-02  8.8543677711033931e-03  6.8365853455195627e-03  5.3236001942497044e-03  4.2766484023036132e-03  3.6630033894175800e-03  3.4609793295671482e-03  6.8962535324541011e-02  6.8326565285084156e-02  6.6453738608124882e-02  6.3446109665437220e-02  5.9463473326233189e-02  5.4709295151151305e-02  4.9413533238878822e-02  4.3814383571607704e-02  3.8140972226826407e-02  3.2598729100518510e-02  2.7358679486240288e-02  2.2551281673143474e-02  1.8264827271669160e-02  1.4547898705378152e-02  1.1415008054034321e-02  8.8543491693882977e-03  6.8365712035775355e-03  5.3235897655943120e-03  4.2766405449966016e-03  3.6629966471968469e-03  3.4609720278253914e-03  6.8962751539616923e-02  6.8326777084504228e-02  6.6453928318150876e-02  6.3446261936067366e-02  5.9463576468281175e-02  5.4709342070180689e-02  4.9413521868280789e-02  4.3814316757977104e-02  3.8140857090067599e-02  3.2598575965000640e-02  2.7358500539555252e-02  2.2551089540234416e-02  1.8264633687438067e-02  1.4547713431938209e-02  1.1414838131660754e-02  8.8541985290217229e-03  6.8364406181983771e-03  5.3234770871148059e-03  4.2765411641841194e-03  3.6629041212882813e-03  3.4608788343614152e-03  6.8963936377370305e-02  6.8327931069561490e-02  6.6454984334538308e-02  6.3447160659011168e-02  5.9464270441222093e-02  5.4709799066210950e-02  4.9413727105680108e-02  4.3814273556774641e-02  3.8140585731756778e-02  3.2598110800089945e-02  2.7357885689965257e-02  2.2550373778343017e-02  1.8263865183043678e-02  1.4546935027945917e-02  1.1414083664690822e-02  8.8534905036685898e-03  6.8357893301227955e-03  5.3228811150046835e-03  4.2759890355484088e-03  3.6623768999068840e-03  3.4603533592122739e-03  6.8967996878240262e-02  6.8331893334590013e-02  6.6458675633613976e-02  6.3450420373159108e-02  5.9466958193390297e-02  5.4711804566305255e-02  4.9414979866546339e-02  4.3814750062982362e-02  3.8140311965058203e-02  3.2597159006154230e-02  2.7356365525846998e-02  2.2548419126834966e-02  1.8261618683386528e-02  1.4544532633191045e-02  1.1411641326369392e-02  8.8510945426298528e-03  6.8334913593049006e-03  5.3206976983968743e-03  4.2739057031382791e-03  3.6603557295118170e-03  3.4583430734332339e-03  6.8977836611155793e-02  6.8341563059288943e-02  6.6467906221647388e-02  6.3458917389364974e-02  5.9474407770260251e-02  5.4717899813203900e-02  4.9419459045543068e-02  4.3817435022939485e-02  3.8141136465841212e-02  3.2596180176459891e-02  2.7353756288827843e-02  2.2544443723374451e-02  1.8256596549544639e-02  1.4538797444324052e-02  1.1405502040868737e-02  8.8448041120189492e-03  6.8272269111463628e-03  5.3145539138215302e-03  4.2679011339517015e-03  3.6544500984028567e-03  3.4524622553604735e-03  6.8994333134757016e-02  6.8358095821639583e-02  6.6484534244683424e-02  6.3475406500834358e-02  5.9490214707250855e-02  5.4732261568950363e-02  4.9431538882824554e-02  4.3826478085129822e-02  3.8146598394691075e-02  3.2597806242798205e-02  2.7351602933344352e-02  2.2538846775511864e-02  1.8248099258447618e-02  1.4528056196746479e-02  1.1393188464666221e-02  8.8315200047798248e-03  6.8134442152135259e-03  5.3005868085578330e-03  4.2539118439596764e-03  3.6404842931628103e-03  3.4385037366588163e-03  6.9007129751808838e-02  6.8372618598935730e-02  6.6503060376297232e-02  6.3498507064541701e-02  5.9516930282717456e-02  5.4760580868349014e-02  4.9458957080392982e-02  4.3850510154984229e-02  3.8165177739229061e-02  3.2609535549939762e-02  2.7355852336854621e-02  2.2535716395223223e-02  1.8238278686977898e-02  1.4512621873875241e-02  1.1373381468935248e-02  8.8085430507790618e-03  6.7883097016381705e-03  5.2740395111885571e-03  4.2264406579600993e-03  3.6124242525815979e-03  3.4102027659531011e-03  6.8969434773590590e-02  6.8347995682941934e-02  6.6501018996640238e-02  6.3519653096378234e-02  5.9557032942292136e-02  5.4813077871382516e-02  4.9516607472494152e-02  4.3906522761492511e-02  3.8213954666428809e-02  3.2647090371383719e-02  2.7379941084578068e-02  2.2545724979333791e-02  1.8234923607358688e-02  1.4497531269654076e-02  1.1348626463268742e-02  8.7761860715019190e-03  6.7500324365955900e-03  5.2309178811107537e-03  4.1789621448721347e-03  3.5609169064013857e-03  3.3560038738269979e-03  6.8642215461387698e-02  6.8186993071479060e-02  6.6452940206577132e-02  6.3548504542246753e-02  5.9636278959057362e-02  5.4921739976626881e-02  4.9637572272263945e-02  4.4025996385314577e-02  3.8321405615140677e-02  3.2735283423126628e-02  2.7444844306121454e-02  2.2586198396455499e-02  1.8252183265350056e-02  1.4494430697019786e-02  1.1328811401700714e-02  8.7431600230303257e-03  6.7061213448278787e-03  5.1760393007384223e-03  4.1089754566126964e-03  3.4651267430453520e-03  3.2130478038515948e-03  </DataArray> 
</PointData> 
</Piece>
</UnstructuredGrid>
</VTKFile>