<?xml version="1.0"?>
<VTKFile type="UnstructuredGrid"  version="0.1"  >
<UnstructuredGrid>
<Piece  NumberOfPoints="441" NumberOfCells="800">
<Points>
<DataArray  type="Float64"  NumberOfComponents="3"  format="ascii">-2 -2 0  -1.8 -2 0  -1.6 -2 0  -1.4 -2 0  -1.2 -2 0  -1 -2 0  -0.8 -2 0  -0.6000000000000001 -2 0  -0.3999999999999999 -2 0  -0.2 -2 0  0 -2 0  0.2000000000000002 -2 0  0.3999999999999999 -2 0  0.6000000000000001 -2 0  0.7999999999999998 -2 0  1 -2 0  1.2 -2 0  1.4 -2 0  1.6 -2 0  1.8 -2 0  2 -2 0  -2 -1.8 0  -1.8 -1.8 0  -1.6 -1.8 0  -1.4 -1.8 0  -1.2 -1.8 0  -1 -1.8 0  -0.8 -1.8 0  -0.6000000000000001 -1.8 0  -0.3999999999999999 -1.8 0  -0.2 -1.8 0  0 -1.8 0  0.2000000000000002 -1.8 0  0.3999999999999999 -1.8 0  0.6000000000000001 -1.8 0  0.7999999999999998 -1.8 0  1 -1.8 0  1.2 -1.8 0  1.4 -1.8 0  1.6 -1.8 0  1.8 -1.8 0  2 -1.8 0  -2 -1.6 0  -1.8 -1.6 0  -1.6 -1.6 0  -1.4 -1.6 0  -1.2 -1.6 0  -1 -1.6 0  -0.8 -1.6 0  -0.6000000000000001 -1.6 0  -0.3999999999999999 -1.6 0  -0.2 -1.6 0  0 -1.6 0  0.2000000000000002 -1.6 0  0.3999999999999999 -1.6 0  0.6000000000000001 -1.6 0  0.7999999999999998 -1.6 0  1 -1.6 0  1.2 -1.6 0  1.4 -1.6 0  1.6 -1.6 0  1.8 -1.6 0  2 -1.6 0  -2 -1.4 0  -1.8 -1.4 0  -1.6 -1.4 0  -1.4 -1.4 0  -1.2 -1.4 0  -1 -1.4 0  -0.8 -1.4 0  -0.6000000000000001 -1.4 0  -0.3999999999999999 -1.4 0  -0.2 -1.4 0  0 -1.4 0  0.2000000000000002 -1.4 0  0.3999999999999999 -1.4 0  0.6000000000000001 -1.4 0  0.7999999999999998 -1.4 0  1 -1.4 0  1.2 -1.4 0  1.4 -1.4 0  1.6 -1.4 0  1.8 -1.4 0  2 -1.4 0  -2 -1.2 0  -1.8 -1.2 0  -1.6 -1.2 0  -1.4 -1.2 0  -1.2 -1.2 0  -1 -1.2 0  -0.8 -1.2 0  -0.6000000000000001 -1.2 0  -0.3999999999999999 -1.2 0  -0.2 -1.2 0  0 -1.2 0  0.2000000000000002 -1.2 0  0.3999999999999999 -1.2 0  0.6000000000000001 -1.2 0  0.7999999999999998 -1.2 0  1 -1.2 0  1.2 -1.2 0  1.4 -1.2 0  1.6 -1.2 0  1.8 -1.2 0  2 -1.2 0  -2 -1 0  -1.8 -1 0  -1.6 -1 0  -1.4 -1 0  -1.2 -1 0  -1 -1 0  -0.8 -1 0  -0.6000000000000001 -1 0  -0.3999999999999999 -1 0  -0.2 -1 0  0 -1 0  0.2000000000000002 -1 0  0.3999999999999999 -1 0  0.6000000000000001 -1 0  0.7999999999999998 -1 0  1 -1 0  1.2 -1 0  1.4 -1 0  1.6 -1 0  1.8 -1 0  2 -1 0  -2 -0.8 0  -1.8 -0.8 0  -1.6 -0.8 0  -1.4 -0.8 0  -1.2 -0.8 0  -1 -0.8 0  -0.8 -0.8 0  -0.6000000000000001 -0.8 0  -0.3999999999999999 -0.8 0  -0.2 -0.8 0  0 -0.8 0  0.2000000000000002 -0.8 0  0.3999999999999999 -0.8 0  0.6000000000000001 -0.8 0  0.7999999999999998 -0.8 0  1 -0.8 0  1.2 -0.8 0  1.4 -0.8 0  1.6 -0.8 0  1.8 -0.8 0  2 -0.8 0  -2 -0.6000000000000001 0  -1.8 -0.6000000000000001 0  -1.6 -0.6000000000000001 0  -1.4 -0.6000000000000001 0  -1.2 -0.6000000000000001 0  -1 -0.6000000000000001 0  -0.8 -0.6000000000000001 0  -0.6000000000000001 -0.6000000000000001 0  -0.3999999999999999 -0.6000000000000001 0  -0.2 -0.6000000000000001 0  0 -0.6000000000000001 0  0.2000000000000002 -0.6000000000000001 0  0.3999999999999999 -0.6000000000000001 0  0.6000000000000001 -0.6000000000000001 0  0.7999999999999998 -0.6000000000000001 0  1 -0.6000000000000001 0  1.2 -0.6000000000000001 0  1.4 -0.6000000000000001 0  1.6 -0.6000000000000001 0  1.8 -0.6000000000000001 0  2 -0.6000000000000001 0  -2 -0.3999999999999999 0  -1.8 -0.3999999999999999 0  -1.6 -0.3999999999999999 0  -1.4 -0.3999999999999999 0  -1.2 -0.3999999999999999 0  -1 -0.3999999999999999 0  -0.8 -0.3999999999999999 0  -0.6000000000000001 -0.3999999999999999 0  -0.3999999999999999 -0.3999999999999999 0  -0.2 -0.3999999999999999 0  0 -0.3999999999999999 0  0.2000000000000002 -0.3999999999999999 0  0.3999999999999999 -0.3999999999999999 0  0.6000000000000001 -0.3999999999999999 0  0.7999999999999998 -0.3999999999999999 0  1 -0.3999999999999999 0  1.2 -0.3999999999999999 0  1.4 -0.3999999999999999 0  1.6 -0.3999999999999999 0  1.8 -0.3999999999999999 0  2 -0.3999999999999999 0  -2 -0.2 0  -1.8 -0.2 0  -1.6 -0.2 0  -1.4 -0.2 0  -1.2 -0.2 0  -1 -0.2 0  -0.8 -0.2 0  -0.6000000000000001 -0.2 0  -0.3999999999999999 -0.2 0  -0.2 -0.2 0  0 -0.2 0  0.2000000000000002 -0.2 0  0.3999999999999999 -0.2 0  0.6000000000000001 -0.2 0  0.7999999999999998 -0.2 0  1 -0.2 0  1.2 -0.2 0  1.4 -0.2 0  1.6 -0.2 0  1.8 -0.2 0  2 -0.2 0  -2 0 0  -1.8 0 0  -1.6 0 0  -1.4 0 0  -1.2 0 0  -1 0 0  -0.8 0 0  -0.6000000000000001 0 0  -0.3999999999999999 0 0  -0.2 0 0  0 0 0  0.2000000000000002 0 0  0.3999999999999999 0 0  0.6000000000000001 0 0  0.7999999999999998 0 0  1 0 0  1.2 0 0  1.4 0 0  1.6 0 0  1.8 0 0  2 0 0  -2 0.2000000000000002 0  -1.8 0.2000000000000002 0  -1.6 0.2000000000000002 0  -1.4 0.2000000000000002 0  -1.2 0.2000000000000002 0  -1 0.2000000000000002 0  -0.8 0.2000000000000002 0  -0.6000000000000001 0.2000000000000002 0  -0.3999999999999999 0.2000000000000002 0  -0.2 0.2000000000000002 0  0 0.2000000000000002 0  0.2000000000000002 0.2000000000000002 0  0.3999999999999999 0.2000000000000002 0  0.6000000000000001 0.2000000000000002 0  0.7999999999999998 0.2000000000000002 0  1 0.2000000000000002 0  1.2 0.2000000000000002 0  1.4 0.2000000000000002 0  1.6 0.2000000000000002 0  1.8 0.2000000000000002 0  2 0.2000000000000002 0  -2 0.3999999999999999 0  -1.8 0.3999999999999999 0  -1.6 0.3999999999999999 0  -1.4 0.3999999999999999 0  -1.2 0.3999999999999999 0  -1 0.3999999999999999 0  -0.8 0.3999999999999999 0  -0.6000000000000001 0.3999999999999999 0  -0.3999999999999999 0.3999999999999999 0  -0.2 0.3999999999999999 0  0 0.3999999999999999 0  0.2000000000000002 0.3999999999999999 0  0.3999999999999999 0.3999999999999999 0  0.6000000000000001 0.3999999999999999 0  0.7999999999999998 0.3999999999999999 0  1 0.3999999999999999 0  1.2 0.3999999999999999 0  1.4 0.3999999999999999 0  1.6 0.3999999999999999 0  1.8 0.3999999999999999 0  2 0.3999999999999999 0  -2 0.6000000000000001 0  -1.8 0.6000000000000001 0  -1.6 0.6000000000000001 0  -1.4 0.6000000000000001 0  -1.2 0.6000000000000001 0  -1 0.6000000000000001 0  -0.8 0.6000000000000001 0  -0.6000000000000001 0.6000000000000001 0  -0.3999999999999999 0.6000000000000001 0  -0.2 0.6000000000000001 0  0 0.6000000000000001 0  0.2000000000000002 0.6000000000000001 0  0.3999999999999999 0.6000000000000001 0  0.6000000000000001 0.6000000000000001 0  0.7999999999999998 0.6000000000000001 0  1 0.6000000000000001 0  1.2 0.6000000000000001 0  1.4 0.6000000000000001 0  1.6 0.6000000000000001 0  1.8 0.6000000000000001 0  2 0.6000000000000001 0  -2 0.7999999999999998 0  -1.8 0.7999999999999998 0  -1.6 0.7999999999999998 0  -1.4 0.7999999999999998 0  -1.2 0.7999999999999998 0  -1 0.7999999999999998 0  -0.8 0.7999999999999998 0  -0.6000000000000001 0.7999999999999998 0  -0.3999999999999999 0.7999999999999998 0  -0.2 0.7999999999999998 0  0 0.7999999999999998 0  0.2000000000000002 0.7999999999999998 0  0.3999999999999999 0.7999999999999998 0  0.6000000000000001 0.7999999999999998 0  0.7999999999999998 0.7999999999999998 0  1 0.7999999999999998 0  1.2 0.7999999999999998 0  1.4 0.7999999999999998 0  1.6 0.7999999999999998 0  1.8 0.7999999999999998 0  2 0.7999999999999998 0  -2 1 0  -1.8 1 0  -1.6 1 0  -1.4 1 0  -1.2 1 0  -1 1 0  -0.8 1 0  -0.6000000000000001 1 0  -0.3999999999999999 1 0  -0.2 1 0  0 1 0  0.2000000000000002 1 0  0.3999999999999999 1 0  0.6000000000000001 1 0  0.7999999999999998 1 0  1 1 0  1.2 1 0  1.4 1 0  1.6 1 0  1.8 1 0  2 1 0  -2 1.2 0  -1.8 1.2 0  -1.6 1.2 0  -1.4 1.2 0  -1.2 1.2 0  -1 1.2 0  -0.8 1.2 0  -0.6000000000000001 1.2 0  -0.3999999999999999 1.2 0  -0.2 1.2 0  0 1.2 0  0.2000000000000002 1.2 0  0.3999999999999999 1.2 0  0.6000000000000001 1.2 0  0.7999999999999998 1.2 0  1 1.2 0  1.2 1.2 0  1.4 1.2 0  1.6 1.2 0  1.8 1.2 0  2 1.2 0  -2 1.4 0  -1.8 1.4 0  -1.6 1.4 0  -1.4 1.4 0  -1.2 1.4 0  -1 1.4 0  -0.8 1.4 0  -0.6000000000000001 1.4 0  -0.3999999999999999 1.4 0  -0.2 1.4 0  0 1.4 0  0.2000000000000002 1.4 0  0.3999999999999999 1.4 0  0.6000000000000001 1.4 0  0.7999999999999998 1.4 0  1 1.4 0  1.2 1.4 0  1.4 1.4 0  1.6 1.4 0  1.8 1.4 0  2 1.4 0  -2 1.6 0  -1.8 1.6 0  -1.6 1.6 0  -1.4 1.6 0  -1.2 1.6 0  -1 1.6 0  -0.8 1.6 0  -0.6000000000000001 1.6 0  -0.3999999999999999 1.6 0  -0.2 1.6 0  0 1.6 0  0.2000000000000002 1.6 0  0.3999999999999999 1.6 0  0.6000000000000001 1.6 0  0.7999999999999998 1.6 0  1 1.6 0  1.2 1.6 0  1.4 1.6 0  1.6 1.6 0  1.8 1.6 0  2 1.6 0  -2 1.8 0  -1.8 1.8 0  -1.6 1.8 0  -1.4 1.8 0  -1.2 1.8 0  -1 1.8 0  -0.8 1.8 0  -0.6000000000000001 1.8 0  -0.3999999999999999 1.8 0  -0.2 1.8 0  0 1.8 0  0.2000000000000002 1.8 0  0.3999999999999999 1.8 0  0.6000000000000001 1.8 0  0.7999999999999998 1.8 0  1 1.8 0  1.2 1.8 0  1.4 1.8 0  1.6 1.8 0  1.8 1.8 0  2 1.8 0  -2 2 0  -1.8 2 0  -1.6 2 0  -1.4 2 0  -1.2 2 0  -1 2 0  -0.8 2 0  -0.6000000000000001 2 0  -0.3999999999999999 2 0  -0.2 2 0  0 2 0  0.2000000000000002 2 0  0.3999999999999999 2 0  0.6000000000000001 2 0  0.7999999999999998 2 0  1 2 0  1.2 2 0  1.4 2 0  1.6 2 0  1.8 2 0  2 2 0  </DataArray>
</Points>
<Cells>
[...]
<PointData  Scalars="f_8"> 
<DataArray  type="Float64"  Name="f_8"  format="ascii">2.7666072310336101e-03  2.7948220083214132e-03  2.8082282859490165e-03  2.8166279163331738e-03  2.8227890534744580e-03  2.8276710270423128e-03  2.8317009935469335e-03  2.8351263652244343e-03  2.8381265607281569e-03  2.8408534248041198e-03  2.8434475430917888e-03  2.8460456185790011e-03  2.8487847321527838e-03  2.8518065945229293e-03  2.8552649309807332e-03  2.8593419418287917e-03  2.8642893084071365e-03  2.8705419142189149e-03  2.8790776328117824e-03  2.8927277642167215e-03  2.9215844444130134e-03  2.9589325077269382e-03  2.9679937164101416e-03  2.9769225497895003e-03  2.9841799167680647e-03  2.9900319912827631e-03  2.9948371697568073e-03  2.9988617585767121e-03  3.0023048168860470e-03  3.0053298819438987e-03  3.0080835629372098e-03  3.0107050495872065e-03  3.0133309545511437e-03  3.0160982566127025e-03  3.0191472397135843e-03  3.0226263580026558e-03  3.0267019072080363e-03  3.0315771249769829e-03  3.0375249269023637e-03  3.0449128699412799e-03  3.0540035702222297e-03  3.0631046882373032e-03  3.4759155408258064e-03  3.4815045325568834e-03  3.4881846456478543e-03  3.4944678685517937e-03  3.4999719145369429e-03  3.5046947354287683e-03  3.5087426937247717e-03  3.5122480411502953e-03  3.5153475361853672e-03  3.5181781496978655e-03  3.5208767368274862e-03  3.5235802600968461e-03  3.5264259163593765e-03  3.5295512115595439e-03  3.5330940310079498e-03  3.5371920366495078e-03  3.5419777820944643e-03  3.5475555696747024e-03  3.5539130992069254e-03  3.5606324458455994e-03  3.5661347439321436e-03  4.3574080030637802e-03  4.3630235949069065e-03  4.3691645128388981e-03  4.3750923232019926e-03  4.3804669419210789e-03  4.3851995381239944e-03  4.3893250356953654e-03  4.3929348322330223e-03  4.3961461827597623e-03  4.3990887365930823e-03  4.4018982570940227e-03  4.4047131272626876e-03  4.4076717418693187e-03  4.4109097805177990e-03  4.4145563433931612e-03  4.4187269818925529e-03  4.4235090016532374e-03  4.4289285229033382e-03  4.4348789780198593e-03  4.4409883204072831e-03  4.4464774150344321e-03  5.6565465582472680e-03  5.6628694671831689e-03  5.6691694134842234e-03  5.6751271345454402e-03  5.6805469466847608e-03  5.6853623375156632e-03  5.6895961198303695e-03  5.6933251578977877e-03  5.6966576421485747e-03  5.6997196658179258e-03  5.7026471124490977e-03  5.7055801571745451e-03  5.7086587404491674e-03  5.7120178731616695e-03  5.7157816311838080e-03  5.7200541853484688e-03  5.7249051312471318e-03  5.7303451264910741e-03  5.7362890190116060e-03  5.7425165387991889e-03  5.7486861642362186e-03  7.4423726042006193e-03  7.4492532861299681e-03  7.4557806829390616e-03  7.4618262241960597e-03  7.4672992173404860e-03  7.4721727113776330e-03  7.4764773548674822e-03  7.4802869096859317e-03  7.4837048690955272e-03  7.4868541413160225e-03  7.4898692399977939e-03  7.4928899666761462e-03  7.4960556770038225e-03  7.4994993564077321e-03  7.5033407538612259e-03  7.5076777354833243e-03  7.5125749761269676e-03  7.5180497055282085e-03  7.5240570987489663e-03  7.5304860227263428e-03  7.5371902276436236e-03  9.7965169112570576e-03  9.8034049928516238e-03  9.8098218919815874e-03  9.8157173960402907e-03  9.8210538718711722e-03  9.8258268724756362e-03  9.8300695740956064e-03  9.8338489986616352e-03  9.8372593344381448e-03  9.8404147206665876e-03  9.8434422261962501e-03  9.8464750667221889e-03  9.8496458707988815e-03  9.8530797563286462e-03  9.8568870244193970e-03  9.8611554148930192e-03  9.8659421918476670e-03  9.8712671172592609e-03  9.8771091302595378e-03  9.8834125290592108e-03  9.8901105719081533e-03  1.2806468363590730e-02  1.2812502248306299e-02  1.2818159598714438e-02  1.2823411022783532e-02  1.2828228329017180e-02  1.2832600989493431e-02  1.2836544970467391e-02  1.2840105055446305e-02  1.2843352691465536e-02  1.2846381025244304e-02  1.2849298264222915e-02  1.2852220079353514e-02  1.2855261497716422e-02  1.2858528624882327e-02  1.2862110599644342e-02  1.2866072406396522e-02  1.2870449521370854e-02  1.2875245815533874e-02  1.2880436614243172e-02  1.2885978976925561e-02  1.2891829896457926e-02  1.6555512983601708e-02  1.6559554548452100e-02  1.6563548513847434e-02  1.6567449012206203e-02  1.6571198460645781e-02  1.6574745891767610e-02  1.6578060986382429e-02  1.6581141748444356e-02  1.6584015951581214e-02  1.6586737559597824e-02  1.6589379610987245e-02  1.6592024918671268e-02  1.6594755681752775e-02  1.6597642962934173e-02  1.6600737065088467e-02  1.6604060119953634e-02  1.6607602521783265e-02  1.6611324927002444e-02  1.6615167060225287e-02  1.6619063178054495e-02  1.6622961515894593e-02  2.1109162140868359e-02  2.1109863597652264e-02  2.1111110926266552e-02  2.1112809030949226e-02  2.1114831156438113e-02  2.1117046119448625e-02  2.1119341262405961e-02  2.1121636778872528e-02  2.1123890621535267e-02  2.1126095420360570e-02  2.1128269670375382e-02  2.1130445392244478e-02  2.1132654104245384e-02  2.1134912708098273e-02  2.1137210994599816e-02  2.1139502881148124e-02  2.1141703913876080e-02  2.1143697492636296e-02  2.1145351098786326e-02  2.1146541113529684e-02  2.1147180909242131e-02  2.6498334805795290e-02  2.6494277468966192e-02  2.6491645462031893e-02  2.6490259152076777e-02  2.6489878072517421e-02  2.6490245604076337e-02  2.6491126133931734e-02  2.6492328049105014e-02  2.6493711910980419e-02  2.6495186564034590e-02  2.6496696946397211e-02  2.6498207004680068e-02  2.6499680367692409e-02  2.6501060977321838e-02  2.6502256015232147e-02  2.6503124151690712e-02  2.6503472963749674e-02  2.6503069532155428e-02  2.6501666664754082e-02  2.6499043009014379e-02  2.6495048744891739e-02  3.2700427298233768e-02  3.2690351062635764e-02  3.2682860458762210e-02  3.2677649412119425e-02  3.2674312415308437e-02  3.2672418258335369e-02  3.2671567546847032e-02  3.2671425671858427e-02  3.2671732817181304e-02  3.2672296907246295e-02  3.2672975773704788e-02  3.2673653439832563e-02  3.2674213868937006e-02  3.2674514670109803e-02  3.2674363448004909e-02  3.2673500669085621e-02  3.2671594615935551e-02  3.2668255157180276e-02  3.2663071915242800e-02  3.2655676810205252e-02  3.2645819796869244e-02  3.9620567843051617e-02  3.9603686353027183e-02  3.9590785161067565e-02  3.9581378117483232e-02  3.9574834895033613e-02  3.9570500372183633e-02  3.9567777957070192e-02  3.9566170666802188e-02  3.9565288517045417e-02  3.9564834165933892e-02  3.9564576622328047e-02  3.9564319314854608e-02  3.9563865970501835e-02  3.9562986348503158e-02  3.9561384130353733e-02  3.9558671142043048e-02  3.9554355243650599e-02  3.9547852639572105e-02  3.9538536621337175e-02  3.9525829410167225e-02  3.9509326386603344e-02  4.7076599902252637e-02  4.7052963950283300e-02  4.7034844787605203e-02  4.7021498101310871e-02  4.7011996758424601e-02  4.7005418876049684e-02  4.7000956806382471e-02  4.6997956440794769e-02  4.6995911940327442e-02  4.6994437553273677e-02  4.6993230014149283e-02  4.6992028063843422e-02  4.6990571271290506e-02  4.6988558443288878e-02  4.6985606210333881e-02  4.6981210881453531e-02  4.6974721599288970e-02  4.6965340093116377e-02  4.6952169952741075e-02  4.6934339395108118e-02  4.6911200756778786e-02  5.4792292186576892e-02  5.4763129429127672e-02  5.4741038475587499e-02  5.4724880003094001e-02  5.4713337088204181e-02  5.4705196611673577e-02  5.4699464314677350e-02  5.4695375516286199e-02  5.4692358693105680e-02  5.4689985013736016e-02  5.4687918049768393e-02  5.4685867231538149e-02  5.4683543623019013e-02  5.4680614823886267e-02  5.4676656098367006e-02  5.4671097260000669e-02  5.4663170704129238e-02  5.4651877680890582e-02  5.4636009482860619e-02  5.4614282888865093e-02  5.4585646435622935e-02  6.2403406400896616e-02  6.2371351616464572e-02  6.2347831305662578e-02  6.2331029209755258e-02  6.2319113040388216e-02  6.2310598917806152e-02  6.2304398367869974e-02  6.2299743572646935e-02  6.2296092656607974e-02  6.2293050095731738e-02  6.2290307064543700e-02  6.2287596213625375e-02  6.2284652982422278e-02  6.2281175435378019e-02  6.2276774805401947e-02  6.2270909566223581e-02  6.2262799191206489e-02  6.2251325872954448e-02  6.2234965782533160e-02  6.2211861268322823e-02  6.2180234199504754e-02  6.9479998878393387e-02  6.9449191598209795e-02  6.9428242738969914e-02  6.9414038353419555e-02  6.9404091027912576e-02  6.9396781052615833e-02  6.9391133543824562e-02  6.9386564073207119e-02  6.9382701345469394e-02  6.9379283451425688e-02  6.9376102194947567e-02  6.9372973310675920e-02  6.9369716748551732e-02  6.9366134877767952e-02  6.9361976512025456e-02  6.9356871163999648e-02  6.9350212098450090e-02  6.9340965016410377e-02  6.9327406041837042e-02  6.9306917068793231e-02  6.9276308040647536e-02  7.5565287109665535e-02  7.5541619223808698e-02  7.5528899086989690e-02  7.5521438340202807e-02  7.5516142537043224e-02  7.5511680821221561e-02  7.5507580739824900e-02  7.5503708855509319e-02  7.5500031014884172e-02  7.5496520546465440e-02  7.5493135372652745e-02  7.5489823965834230e-02  7.5486540371594177e-02  7.5483256704980975e-02  7.5479961514867189e-02  7.5476624161645939e-02  7.5473084776452176e-02  7.5468789826252977e-02  7.5462241722497575e-02  7.5450072590042147e-02  7.5426295650840733e-02  8.0226452121808359e-02  8.0219462353165794e-02  8.0222813252857517e-02  8.0226588923925882e-02  8.0228231482371196e-02  8.0227761180139190e-02  8.0225810866146691e-02  8.0222991738139654e-02  8.0219741660825183e-02  8.0216330807399552e-02  8.0212913196842650e-02  8.0209588153481906e-02  8.0206461321984140e-02  8.0203702879394365e-02  8.0201600740223408e-02  8.0200598804428369e-02  8.0201284418029997e-02  8.0204210927193723e-02  8.0209216802127184e-02  8.0213358942979679e-02  8.0206015870554023e-02  8.3105253152087888e-02  8.3138412928628586e-02  8.3168488312245784e-02  8.3186601720186520e-02  8.3195690179514600e-02  8.3199078352747591e-02  8.3199099930191589e-02  8.3197242799948237e-02  8.3194415280085143e-02  8.3191153875322416e-02  8.3187777085378722e-02  8.3184505861234867e-02  8.3181567230755135e-02  8.3179294826855182e-02  8.3178240467520953e-02  8.3179314781364685e-02  8.3183980487752232e-02  8.3194506919170436e-02  8.3214102172282950e-02  8.3245439866212745e-02  8.3278449282807560e-02  8.3940165549697979e-02  8.4101152059920442e-02  8.4165022907904952e-02  8.4193829814937199e-02  8.4206998314605513e-02  8.4212177695884280e-02  8.4213041670951685e-02  8.4211580654706505e-02  8.4208927043037465e-02  8.4205731743485224e-02  8.4202379700332966e-02  8.4199139036503251e-02  8.4196283007378053e-02  8.4194208471454132e-02  8.4193575005471227e-02  8.4195505366656612e-02  8.4201945247834739e-02  8.4216477056232170e-02  8.4246625372145736e-02  8.4311783231496157e-02  8.4474821086597263e-02  </DataArray> 
</PointData> 
</Piece>
</UnstructuredGrid>
</VTKFile>