<?xml version="1.0"?>
<VTKFile type="UnstructuredGrid"  version="0.1"  >
<UnstructuredGrid>
<Piece  NumberOfPoints="441" NumberOfCells="800">
<Points>
<DataArray  type="Float64"  NumberOfComponents="3"  format="ascii">-2 -2 0  -1.8 -2 0  -1.6 -2 0  -1.4 -2 0  -1.2 -2 0  -1 -2 0  -0.8 -2 0  -0.6000000000000001 -2 0  -0.3999999999999999 -2 0  -0.2 -2 0  0 -2 0  0.2000000000000002 -2 0  0.3999999999999999 -2 0  0.6000000000000001 -2 0  0.7999999999999998 -2 0  1 -2 0  1.2 -2 0  1.4 -2 0  1.6 -2 0  1.8 -2 0  2 -2 0  -2 -1.8 0  -1.8 -1.8 0  -1.6 -1.8 0  -1.4 -1.8 0  -1.2 -1.8 0  -1 -1.8 0  -0.8 -1.8 0  -0.6000000000000001 -1.8 0  -0.3999999999999999 -1.8 0  -0.2 -1.8 0  0 -1.8 0  0.2000000000000002 -1.8 0  0.3999999999999999 -1.8 0  0.6000000000000001 -1.8 0  0.7999999999999998 -1.8 0  1 -1.8 0  1.2 -1.8 0  1.4 -1.8 0  1.6 -1.8 0  1.8 -1.8 0  2 -1.8 0  -2 -1.6 0  -1.8 -1.6 0  -1.6 -1.6 0  -1.4 -1.6 0  -1.2 -1.6 0  -1 -1.6 0  -0.8 -1.6 0  -0.6000000000000001 -1.6 0  -0.3999999999999999 -1.6 0  -0.2 -1.6 0  0 -1.6 0  0.2000000000000002 -1.6 0  0.3999999999999999 -1.6 0  0.6000000000000001 -1.6 0  0.7999999999999998 -1.6 0  1 -1.6 0  1.2 -1.6 0  1.4 -1.6 0  1.6 -1.6 0  1.8 -1.6 0  2 -1.6 0  -2 -1.4 0  -1.8 -1.4 0  -1.6 -1.4 0  -1.4 -1.4 0  -1.2 -1.4 0  -1 -1.4 0  -0.8 -1.4 0  -0.6000000000000001 -1.4 0  -0.3999999999999999 -1.4 0  -0.2 -1.4 0  0 -1.4 0  0.2000000000000002 -1.4 0  0.3999999999999999 -1.4 0  0.6000000000000001 -1.4 0  0.7999999999999998 -1.4 0  1 -1.4 0  1.2 -1.4 0  1.4 -1.4 0  1.6 -1.4 0  1.8 -1.4 0  2 -1.4 0  -2 -1.2 0  -1.8 -1.2 0  -1.6 -1.2 0  -1.4 -1.2 0  -1.2 -1.2 0  -1 -1.2 0  -0.8 -1.2 0  -0.6000000000000001 -1.2 0  -0.3999999999999999 -1.2 0  -0.2 -1.2 0  0 -1.2 0  0.2000000000000002 -1.2 0  0.3999999999999999 -1.2 0  0.6000000000000001 -1.2 0  0.7999999999999998 -1.2 0  1 -1.2 0  1.2 -1.2 0  1.4 -1.2 0  1.6 -1.2 0  1.8 -1.2 0  2 -1.2 0  -2 -1 0  -1.8 -1 0  -1.6 -1 0  -1.4 -1 0  -1.2 -1 0  -1 -1 0  -0.8 -1 0  -0.6000000000000001 -1 0  -0.3999999999999999 -1 0  -0.2 -1 0  0 -1 0  0.2000000000000002 -1 0  0.3999999999999999 -1 0  0.6000000000000001 -1 0  0.7999999999999998 -1 0  1 -1 0  1.2 -1 0  1.4 -1 0  1.6 -1 0  1.8 -1 0  2 -1 0  -2 -0.8 0  -1.8 -0.8 0  -1.6 -0.8 0  -1.4 -0.8 0  -1.2 -0.8 0  -1 -0.8 0  -0.8 -0.8 0  -0.6000000000000001 -0.8 0  -0.3999999999999999 -0.8 0  -0.2 -0.8 0  0 -0.8 0  0.2000000000000002 -0.8 0  0.3999999999999999 -0.8 0  0.6000000000000001 -0.8 0  0.7999999999999998 -0.8 0  1 -0.8 0  1.2 -0.8 0  1.4 -0.8 0  1.6 -0.8 0  1.8 -0.8 0  2 -0.8 0  -2 -0.6000000000000001 0  -1.8 -0.6000000000000001 0  -1.6 -0.6000000000000001 0  -1.4 -0.6000000000000001 0  -1.2 -0.6000000000000001 0  -1 -0.6000000000000001 0  -0.8 -0.6000000000000001 0  -0.6000000000000001 -0.6000000000000001 0  -0.3999999999999999 -0.6000000000000001 0  -0.2 -0.6000000000000001 0  0 -0.6000000000000001 0  0.2000000000000002 -0.6000000000000001 0  0.3999999999999999 -0.6000000000000001 0  0.6000000000000001 -0.6000000000000001 0  0.7999999999999998 -0.6000000000000001 0  1 -0.6000000000000001 0  1.2 -0.6000000000000001 0  1.4 -0.6000000000000001 0  1.6 -0.6000000000000001 0  1.8 -0.6000000000000001 0  2 -0.6000000000000001 0  -2 -0.3999999999999999 0  -1.8 -0.3999999999999999 0  -1.6 -0.3999999999999999 0  -1.4 -0.3999999999999999 0  -1.2 -0.3999999999999999 0  -1 -0.3999999999999999 0  -0.8 -0.3999999999999999 0  -0.6000000000000001 -0.3999999999999999 0  -0.3999999999999999 -0.3999999999999999 0  -0.2 -0.3999999999999999 0  0 -0.3999999999999999 0  0.2000000000000002 -0.3999999999999999 0  0.3999999999999999 -0.3999999999999999 0  0.6000000000000001 -0.3999999999999999 0  0.7999999999999998 -0.3999999999999999 0  1 -0.3999999999999999 0  1.2 -0.3999999999999999 0  1.4 -0.3999999999999999 0  1.6 -0.3999999999999999 0  1.8 -0.3999999999999999 0  2 -0.3999999999999999 0  -2 -0.2 0  -1.8 -0.2 0  -1.6 -0.2 0  -1.4 -0.2 0  -1.2 -0.2 0  -1 -0.2 0  -0.8 -0.2 0  -0.6000000000000001 -0.2 0  -0.3999999999999999 -0.2 0  -0.2 -0.2 0  0 -0.2 0  0.2000000000000002 -0.2 0  0.3999999999999999 -0.2 0  0.6000000000000001 -0.2 0  0.7999999999999998 -0.2 0  1 -0.2 0  1.2 -0.2 0  1.4 -0.2 0  1.6 -0.2 0  1.8 -0.2 0  2 -0.2 0  -2 0 0  -1.8 0 0  -1.6 0 0  -1.4 0 0  -1.2 0 0  -1 0 0  -0.8 0 0  -0.6000000000000001 0 0  -0.3999999999999999 0 0  -0.2 0 0  0 0 0  0.2000000000000002 0 0  0.3999999999999999 0 0  0.6000000000000001 0 0  0.7999999999999998 0 0  1 0 0  1.2 0 0  1.4 0 0  1.6 0 0  1.8 0 0  2 0 0  -2 0.2000000000000002 0  -1.8 0.2000000000000002 0  -1.6 0.2000000000000002 0  -1.4 0.2000000000000002 0  -1.2 0.2000000000000002 0  -1 0.2000000000000002 0  -0.8 0.2000000000000002 0  -0.6000000000000001 0.2000000000000002 0  -0.3999999999999999 0.2000000000000002 0  -0.2 0.2000000000000002 0  0 0.2000000000000002 0  0.2000000000000002 0.2000000000000002 0  0.3999999999999999 0.2000000000000002 0  0.6000000000000001 0.2000000000000002 0  0.7999999999999998 0.2000000000000002 0  1 0.2000000000000002 0  1.2 0.2000000000000002 0  1.4 0.2000000000000002 0  1.6 0.2000000000000002 0  1.8 0.2000000000000002 0  2 0.2000000000000002 0  -2 0.3999999999999999 0  -1.8 0.3999999999999999 0  -1.6 0.3999999999999999 0  -1.4 0.3999999999999999 0  -1.2 0.3999999999999999 0  -1 0.3999999999999999 0  -0.8 0.3999999999999999 0  -0.6000000000000001 0.3999999999999999 0  -0.3999999999999999 0.3999999999999999 0  -0.2 0.3999999999999999 0  0 0.3999999999999999 0  0.2000000000000002 0.3999999999999999 0  0.3999999999999999 0.3999999999999999 0  0.6000000000000001 0.3999999999999999 0  0.7999999999999998 0.3999999999999999 0  1 0.3999999999999999 0  1.2 0.3999999999999999 0  1.4 0.3999999999999999 0  1.6 0.3999999999999999 0  1.8 0.3999999999999999 0  2 0.3999999999999999 0  -2 0.6000000000000001 0  -1.8 0.6000000000000001 0  -1.6 0.6000000000000001 0  -1.4 0.6000000000000001 0  -1.2 0.6000000000000001 0  -1 0.6000000000000001 0  -0.8 0.6000000000000001 0  -0.6000000000000001 0.6000000000000001 0  -0.3999999999999999 0.6000000000000001 0  -0.2 0.6000000000000001 0  0 0.6000000000000001 0  0.2000000000000002 0.6000000000000001 0  0.3999999999999999 0.6000000000000001 0  0.6000000000000001 0.6000000000000001 0  0.7999999999999998 0.6000000000000001 0  1 0.6000000000000001 0  1.2 0.6000000000000001 0  1.4 0.6000000000000001 0  1.6 0.6000000000000001 0  1.8 0.6000000000000001 0  2 0.6000000000000001 0  -2 0.7999999999999998 0  -1.8 0.7999999999999998 0  -1.6 0.7999999999999998 0  -1.4 0.7999999999999998 0  -1.2 0.7999999999999998 0  -1 0.7999999999999998 0  -0.8 0.7999999999999998 0  -0.6000000000000001 0.7999999999999998 0  -0.3999999999999999 0.7999999999999998 0  -0.2 0.7999999999999998 0  0 0.7999999999999998 0  0.2000000000000002 0.7999999999999998 0  0.3999999999999999 0.7999999999999998 0  0.6000000000000001 0.7999999999999998 0  0.7999999999999998 0.7999999999999998 0  1 0.7999999999999998 0  1.2 0.7999999999999998 0  1.4 0.7999999999999998 0  1.6 0.7999999999999998 0  1.8 0.7999999999999998 0  2 0.7999999999999998 0  -2 1 0  -1.8 1 0  -1.6 1 0  -1.4 1 0  -1.2 1 0  -1 1 0  -0.8 1 0  -0.6000000000000001 1 0  -0.3999999999999999 1 0  -0.2 1 0  0 1 0  0.2000000000000002 1 0  0.3999999999999999 1 0  0.6000000000000001 1 0  0.7999999999999998 1 0  1 1 0  1.2 1 0  1.4 1 0  1.6 1 0  1.8 1 0  2 1 0  -2 1.2 0  -1.8 1.2 0  -1.6 1.2 0  -1.4 1.2 0  -1.2 1.2 0  -1 1.2 0  -0.8 1.2 0  -0.6000000000000001 1.2 0  -0.3999999999999999 1.2 0  -0.2 1.2 0  0 1.2 0  0.2000000000000002 1.2 0  0.3999999999999999 1.2 0  0.6000000000000001 1.2 0  0.7999999999999998 1.2 0  1 1.2 0  1.2 1.2 0  1.4 1.2 0  1.6 1.2 0  1.8 1.2 0  2 1.2 0  -2 1.4 0  -1.8 1.4 0  -1.6 1.4 0  -1.4 1.4 0  -1.2 1.4 0  -1 1.4 0  -0.8 1.4 0  -0.6000000000000001 1.4 0  -0.3999999999999999 1.4 0  -0.2 1.4 0  0 1.4 0  0.2000000000000002 1.4 0  0.3999999999999999 1.4 0  0.6000000000000001 1.4 0  0.7999999999999998 1.4 0  1 1.4 0  1.2 1.4 0  1.4 1.4 0  1.6 1.4 0  1.8 1.4 0  2 1.4 0  -2 1.6 0  -1.8 1.6 0  -1.6 1.6 0  -1.4 1.6 0  -1.2 1.6 0  -1 1.6 0  -0.8 1.6 0  -0.6000000000000001 1.6 0  -0.3999999999999999 1.6 0  -0.2 1.6 0  0 1.6 0  0.2000000000000002 1.6 0  0.3999999999999999 1.6 0  0.6000000000000001 1.6 0  0.7999999999999998 1.6 0  1 1.6 0  1.2 1.6 0  1.4 1.6 0  1.6 1.6 0  1.8 1.6 0  2 1.6 0  -2 1.8 0  -1.8 1.8 0  -1.6 1.8 0  -1.4 1.8 0  -1.2 1.8 0  -1 1.8 0  -0.8 1.8 0  -0.6000000000000001 1.8 0  -0.3999999999999999 1.8 0  -0.2 1.8 0  0 1.8 0  0.2000000000000002 1.8 0  0.3999999999999999 1.8 0  0.6000000000000001 1.8 0  0.7999999999999998 1.8 0  1 1.8 0  1.2 1.8 0  1.4 1.8 0  1.6 1.8 0  1.8 1.8 0  2 1.8 0  -2 2 0  -1.8 2 0  -1.6 2 0  -1.4 2 0  -1.2 2 0  -1 2 0  -0.8 2 0  -0.6000000000000001 2 0  -0.3999999999999999 2 0  -0.2 2 0  0 2 0  0.2000000000000002 2 0  0.3999999999999999 2 0  0.6000000000000001 2 0  0.7999999999999998 2 0  1 2 0  1.2 2 0  1.4 2 0  1.6 2 0  1.8 2 0  2 2 0  </DataArray>
</Points>
<Cells>
[...]
<PointData  Scalars="f_8"> 
<DataArray  type="Float64"  Name="f_8"  format="ascii">7.0969303165703893e-02  7.0090040139189624e-02  6.7929861323704696e-02  6.4597241682195841e-02  6.0268560593478120e-02  5.5168554996779265e-02  4.9548721784502557e-02  4.3665719477929500e-02  3.7761867111356914e-02  3.2049484381795001e-02  2.6700204033369385e-02  2.1839668850490875e-02  1.7547343100464328e-02  1.3860629849064348e-02  1.0782152670813174e-02  8.2889453663414145e-03  6.3423678351508224e-03  4.8977756692070058e-03  3.9132528556428689e-03  3.3570184047365397e-03  3.2134104729239182e-03  7.0616674722092071e-02  6.9918800690227018e-02  6.7881362816834226e-02  6.4631488816661767e-02  6.0355895588068351e-02  5.5285591583964490e-02  4.9676619623328443e-02  4.3789629345517833e-02  3.7870831803940311e-02  3.2136378668094760e-02  2.6761502604904789e-02  2.1874972782239859e-02  1.7558685326803127e-02  1.3851625076723736e-02  1.0757062499483211e-02  8.2517008202166609e-03  6.2955332777809474e-03  4.8413495062570320e-03  3.8430705031488599e-03  3.2623221613227371e-03  3.0728178324379036e-03  7.0571393500082708e-02  6.9886872065419006e-02  6.7874091330567723e-02  6.4649902015716201e-02  6.0395412004988137e-02  5.5338920614822408e-02  4.9735688065719902e-02  4.3846897783871852e-02  3.7920153772705835e-02  3.2173469948044237e-02  2.6784068442470627e-02  2.1882550481174861e-02  1.7552275888972891e-02  1.3833198008041312e-02  1.0729018221930016e-02  8.2163672795649966e-03  6.2547640506366627e-03  4.7962907358673713e-03  3.7941886854210502e-03  3.2098572679689513e-03  3.0179848664948447e-03  7.0580767256860952e-02  6.9898090468185528e-02  6.7889879949884518e-02  6.4671134953731155e-02  6.0421195858752975e-02  5.5367092008278516e-02  4.9763444859049807e-02  4.3871402911685217e-02  3.7939017464880556e-02  3.2185061796761269e-02  2.6787647095715468e-02  2.1878228040811364e-02  1.7540855261886104e-02  1.3815933217892687e-02  1.0707350128667869e-02  8.1916820250022421e-03  6.2282116666132498e-03  4.7686894364795890e-03  3.7660274723540295e-03  3.1813928897400584e-03  2.9893991150445032e-03  7.0596439802831215e-02  6.9913964647674826e-02  6.7906122320032097e-02  6.4687585014871485e-02  6.0437314664746340e-02  5.5382042945033239e-02  4.9776256389162256e-02  4.3881157191887225e-02  3.7945016894708451e-02  3.2186940737267591e-02  2.6785413619442321e-02  2.1872237109317787e-02  1.7531727555849086e-02  1.3804441469693778e-02  1.0694296969176821e-02  8.1777908818554731e-03  6.2140466474067992e-03  4.7546130500334587e-03  3.7521978004570649e-03  3.1677951628251945e-03  2.9759009877990713e-03  7.0606769440125991e-02  6.9924219767359463e-02  6.7916051579739636e-02  6.4696892215790933e-02  6.0445658709574732e-02  5.5389064932628074e-02  4.9781626008333621e-02  4.3884624841992757e-02  3.7946457331772480e-02  3.2186377379665357e-02  2.6783018231447981e-02  2.1868305616382297e-02  1.7526637731790588e-02  1.3798601228267714e-02  1.0688092701427863e-02  8.1715440044337513e-03  6.2079839530717303e-03  4.7488533997015461e-03  3.7467548852496957e-03  3.1625939692124455e-03  2.9708044265262523e-03  7.0611542586651144e-02  6.9928917859000239e-02  6.7920497508127120e-02  6.4700912322724805e-02  6.0449091452277295e-02  5.5391773261149142e-02  4.9783511522074851e-02  4.3885640460951461e-02  3.7946615060437047e-02  3.2185748701950630e-02  2.6781726351726907e-02  2.1866510598226325e-02  1.7524517061198723e-02  1.3796329097725655e-02  1.0685821274595100e-02  8.1693892083001870e-03  6.2060172390122686e-03  4.7470997494813635e-03  3.7451963937926258e-03  3.1611777756980889e-03  2.9694536118872765e-03  7.0613182905909705e-02  6.9930519020992871e-02  6.7921986524434472e-02  6.4702222159552070e-02  6.0450165901475839e-02  5.5392571623810012e-02  4.9784012465105082e-02  4.3885844274592418e-02  3.7946543663616099e-02  3.2185443102133046e-02  2.6781241763098363e-02  2.1865909905821646e-02  1.7523863647186298e-02  1.3795680132898790e-02  1.0685222414426848e-02  8.1688712825003611e-03  6.2055950955744498e-03  4.7467730258229030e-03  3.7449517291164567e-03  3.1609918917157314e-03  2.9692967611385239e-03  7.0613586950382182e-02  6.9930907743531653e-02  6.7922339177994617e-02  6.4702520774258421e-02  6.0450396901248281e-02  5.5392727094368065e-02  4.9784090887427621e-02  4.3885850573532462e-02  3.7946488506752710e-02  3.2185341507212854e-02  2.6781111203497153e-02  2.1865768204841259e-02  1.7523726992634055e-02  1.3795561509871391e-02  1.0685130655255125e-02  8.1688107958535552e-03  6.2055661986042216e-03  4.7467726986372165e-03  3.7449745626572527e-03  3.1610310141510795e-03  2.9693445933254244e-03  7.0613647213876460e-02  6.9930963337335353e-02  6.7922386280776070e-02  6.4702556431061001e-02  6.0450419359865969e-02  5.5392736004967399e-02  4.9784087328460618e-02  4.3885836889681652e-02  3.7946467974816336e-02  3.2185317877939927e-02  2.6781088193446073e-02  2.1865749024559258e-02  1.7523713991138484e-02  1.3795555990943681e-02  1.0685132884091918e-02  8.1688201744014397e-03  6.2055815544062691e-03  4.7467926129992604e-03  3.7449976629465079e-03  3.1610561708915910e-03  2.9693709904497468e-03  7.0613646777144753e-02  6.9930961921204460e-02  6.7922383680497814e-02  6.4702552611352798e-02  6.0450414483240629e-02  5.5392730428635427e-02  4.9784081566656667e-02  4.3885831544818177e-02  3.7946463647695897e-02  3.2185315072753219e-02  2.6781087235830576e-02  2.1865750009531722e-02  1.7523716772204181e-02  1.3795560213260115e-02  1.0685138055257252e-02  8.1688257585713301e-03  6.2055870709091304e-03  4.7467977203265342e-03  3.7450022126769458e-03  3.1610602225473163e-03  2.9693747857979739e-03  7.0613637709282737e-02  6.9930953202407900e-02  6.7922375471853272e-02  6.4702545042286105e-02  6.0450407671940633e-02  5.5392724491893364e-02  4.9784076616765927e-02  4.3885827675154941e-02  3.7946460912006430e-02  3.2185313465130157e-02  2.6781086678328472e-02  2.1865750352346034e-02  1.7523717807886446e-02  1.3795561702551957e-02  1.0685139758902829e-02  8.1688274678030880e-03  6.2055886296153327e-03  4.7467990340572305e-03  3.7450032429982745e-03  3.1610609689083470e-03  2.9693752601113806e-03  7.0613633521678404e-02  6.9930950123320831e-02  6.7922371644157140e-02  6.4702538807757518e-02  6.0450397818434747e-02  5.5392710411404207e-02  4.9784058357219912e-02  4.3885805887047012e-02  3.7946436708698628e-02  3.2185288229132074e-02  2.6781061852111664e-02  2.1865727249923746e-02  1.7523697473542384e-02  1.3795544828767485e-02  1.0685126660785776e-02  8.1688181000220579e-03  6.2055826265618435e-03  4.7467957553865726e-03  3.7450018136409090e-03  3.1610603124847957e-03  2.9693741341666078e-03  7.0613786313051999e-02  6.9931100208249844e-02  6.7922503929635419e-02  6.4702640299774267e-02  6.0450458870902765e-02  5.5392725561657745e-02  4.9784026657025172e-02  4.3885730697587562e-02  3.7946325003084098e-02  3.2185149520238640e-02  2.6780906917538212e-02  2.1865566845081529e-02  1.7523541204381012e-02  1.3795400304826457e-02  1.0684998982877640e-02  8.1687096732857688e-03  6.2054932441037297e-03  4.7467228782139409e-03  3.7449409783622701e-03  3.1610056211652539e-03  2.9693188084864430e-03  7.0614807654810652e-02  6.9932093637133541e-02  6.7923405380018634e-02  6.4703393765410538e-02  6.0451020586748012e-02  5.5393067306180488e-02  4.9784137728746514e-02  4.3885618179145984e-02  3.7946012146616956e-02  3.2184672403222050e-02  2.6780309827564203e-02  2.1864897062940522e-02  1.7522843914673750e-02  1.3794714271122301e-02  1.0684353423089651e-02  8.1681225268901841e-03  6.2049708018396769e-03  4.7462605922990097e-03  3.7445252020641660e-03  3.1606160267655509e-03  2.9689312696252047e-03  7.0618657003105434e-02  6.9935842966801554e-02  6.7926876303504774e-02  6.4706422418074921e-02  6.0453466874213518e-02  5.5394825438394753e-02  4.9785145976127744e-02  4.3885865307468935e-02  3.7945538488555558e-02  3.2183564698962989e-02  2.6778690357186812e-02  2.1862908768701877e-02  1.7520633888063523e-02  1.3792418068360131e-02  1.0682082260426971e-02  8.1659546918227671e-03  6.2029478254455013e-03  4.7443880453253056e-03  3.7427775005624783e-03  3.1589443678651089e-03  2.9672737080876630e-03  7.0628596471309882e-02  6.9945592288228678e-02  6.7936132935674201e-02  6.4714862880343102e-02  6.0460756151494217e-02  5.5400647348017931e-02  4.9789244430964955e-02  4.3888083748577458e-02  3.7945846474014826e-02  3.2182065032647200e-02  2.6775605437892730e-02  2.1858549546735474e-02  1.7515357968648445e-02  1.3786584737139115e-02  1.0676011698173934e-02  8.1598969218681910e-03  6.1970646552753144e-03  4.7387489972355173e-03  3.7373688270627369e-03  3.1536888167489766e-03  2.9620576853882719e-03  7.0646151076667690e-02  6.9963146348019353e-02  6.7953684756274974e-02  6.4732105009961585e-02  6.0477066823313726e-02  5.5415195283033902e-02  4.9801152011631517e-02  4.3896595607364419e-02  3.7950463085297884e-02  3.2182617671635085e-02  2.6772265753339585e-02  2.1851781084118917e-02  1.7505826501829084e-02  1.3775048627766366e-02  1.0663213202789160e-02  8.1464716820585925e-03  6.1834811156379864e-03  4.7252835793009434e-03  3.7241171239451153e-03  3.1406078719208755e-03  2.9490290460146536e-03  7.0661024453265789e-02  6.9979810701099071e-02  6.7974464025169642e-02  6.4757477289379792e-02  6.0505870970619033e-02  5.5445172260231240e-02  4.9829571307385481e-02  4.3920824276982857e-02  3.7968397322220342e-02  3.2192940427184798e-02  2.6774528081779138e-02  2.1846331202690254e-02  1.7493628082175156e-02  1.3757437918211995e-02  1.0641644020263380e-02  8.1222904081886382e-03  6.1577636960417461e-03  4.6987559670746328e-03  3.6971707175791403e-03  3.1134097611220514e-03  2.9217041818003064e-03  7.0623238370320696e-02  6.9956083346814982e-02  6.7974921723395990e-02  6.4782556619718157e-02  6.0550733583273481e-02  5.5502470585470517e-02  4.9891301270954945e-02  4.3979597304540000e-02  3.8018268958635235e-02  3.2229855752735986e-02  2.6796429109810907e-02  2.1852983395703348e-02  1.7486240201084288e-02  1.3738159717252443e-02  1.0613025768120173e-02  8.0867789909235249e-03  6.1172990260607556e-03  4.6545293986671619e-03  3.6496294378522295e-03  3.0626604899677288e-03  2.8686236631713766e-03  7.0275101784164518e-02  6.9786750219561905e-02  6.7927417190738984e-02  6.4817961445026009e-02  6.0639980395344496e-02  5.5622355149829890e-02  5.0022840269543296e-02  4.4107575233356407e-02  3.8131253133462349e-02  3.2320247542622964e-02  2.6860323630027761e-02  2.1889755854782346e-02  1.7497874772167250e-02  1.3728389938023259e-02  1.0586367272862692e-02  8.0475101155654295e-03  6.0683864707601898e-03  4.5964046976436227e-03  3.5785877908932734e-03  2.9684486137158961e-03  2.7304479341402465e-03  </DataArray> 
</PointData> 
</Piece>
</UnstructuredGrid>
</VTKFile>