<?xml version="1.0"?>
<VTKFile type="UnstructuredGrid"  version="0.1"  >
<UnstructuredGrid>
<Piece  NumberOfPoints="441" NumberOfCells="800">
<Points>
<DataArray  type="Float64"  NumberOfComponents="3"  format="ascii">-2 -2 0  -1.8 -2 0  -1.6 -2 0  -1.4 -2 0  -1.2 -2 0  -1 -2 0  -0.8 -2 0  -0.6000000000000001 -2 0  -0.3999999999999999 -2 0  -0.2 -2 0  0 -2 0  0.2000000000000002 -2 0  0.3999999999999999 -2 0  0.6000000000000001 -2 0  0.7999999999999998 -2 0  1 -2 0  1.2 -2 0  1.4 -2 0  1.6 -2 0  1.8 -2 0  2 -2 0  -2 -1.8 0  -1.8 -1.8 0  -1.6 -1.8 0  -1.4 -1.8 0  -1.2 -1.8 0  -1 -1.8 0  -0.8 -1.8 0  -0.6000000000000001 -1.8 0  -0.3999999999999999 -1.8 0  -0.2 -1.8 0  0 -1.8 0  0.2000000000000002 -1.8 0  0.3999999999999999 -1.8 0  0.6000000000000001 -1.8 0  0.7999999999999998 -1.8 0  1 -1.8 0  1.2 -1.8 0  1.4 -1.8 0  1.6 -1.8 0  1.8 -1.8 0  2 -1.8 0  -2 -1.6 0  -1.8 -1.6 0  -1.6 -1.6 0  -1.4 -1.6 0  -1.2 -1.6 0  -1 -1.6 0  -0.8 -1.6 0  -0.6000000000000001 -1.6 0  -0.3999999999999999 -1.6 0  -0.2 -1.6 0  0 -1.6 0  0.2000000000000002 -1.6 0  0.3999999999999999 -1.6 0  0.6000000000000001 -1.6 0  0.7999999999999998 -1.6 0  1 -1.6 0  1.2 -1.6 0  1.4 -1.6 0  1.6 -1.6 0  1.8 -1.6 0  2 -1.6 0  -2 -1.4 0  -1.8 -1.4 0  -1.6 -1.4 0  -1.4 -1.4 0  -1.2 -1.4 0  -1 -1.4 0  -0.8 -1.4 0  -0.6000000000000001 -1.4 0  -0.3999999999999999 -1.4 0  -0.2 -1.4 0  0 -1.4 0  0.2000000000000002 -1.4 0  0.3999999999999999 -1.4 0  0.6000000000000001 -1.4 0  0.7999999999999998 -1.4 0  1 -1.4 0  1.2 -1.4 0  1.4 -1.4 0  1.6 -1.4 0  1.8 -1.4 0  2 -1.4 0  -2 -1.2 0  -1.8 -1.2 0  -1.6 -1.2 0  -1.4 -1.2 0  -1.2 -1.2 0  -1 -1.2 0  -0.8 -1.2 0  -0.6000000000000001 -1.2 0  -0.3999999999999999 -1.2 0  -0.2 -1.2 0  0 -1.2 0  0.2000000000000002 -1.2 0  0.3999999999999999 -1.2 0  0.6000000000000001 -1.2 0  0.7999999999999998 -1.2 0  1 -1.2 0  1.2 -1.2 0  1.4 -1.2 0  1.6 -1.2 0  1.8 -1.2 0  2 -1.2 0  -2 -1 0  -1.8 -1 0  -1.6 -1 0  -1.4 -1 0  -1.2 -1 0  -1 -1 0  -0.8 -1 0  -0.6000000000000001 -1 0  -0.3999999999999999 -1 0  -0.2 -1 0  0 -1 0  0.2000000000000002 -1 0  0.3999999999999999 -1 0  0.6000000000000001 -1 0  0.7999999999999998 -1 0  1 -1 0  1.2 -1 0  1.4 -1 0  1.6 -1 0  1.8 -1 0  2 -1 0  -2 -0.8 0  -1.8 -0.8 0  -1.6 -0.8 0  -1.4 -0.8 0  -1.2 -0.8 0  -1 -0.8 0  -0.8 -0.8 0  -0.6000000000000001 -0.8 0  -0.3999999999999999 -0.8 0  -0.2 -0.8 0  0 -0.8 0  0.2000000000000002 -0.8 0  0.3999999999999999 -0.8 0  0.6000000000000001 -0.8 0  0.7999999999999998 -0.8 0  1 -0.8 0  1.2 -0.8 0  1.4 -0.8 0  1.6 -0.8 0  1.8 -0.8 0  2 -0.8 0  -2 -0.6000000000000001 0  -1.8 -0.6000000000000001 0  -1.6 -0.6000000000000001 0  -1.4 -0.6000000000000001 0  -1.2 -0.6000000000000001 0  -1 -0.6000000000000001 0  -0.8 -0.6000000000000001 0  -0.6000000000000001 -0.6000000000000001 0  -0.3999999999999999 -0.6000000000000001 0  -0.2 -0.6000000000000001 0  0 -0.6000000000000001 0  0.2000000000000002 -0.6000000000000001 0  0.3999999999999999 -0.6000000000000001 0  0.6000000000000001 -0.6000000000000001 0  0.7999999999999998 -0.6000000000000001 0  1 -0.6000000000000001 0  1.2 -0.6000000000000001 0  1.4 -0.6000000000000001 0  1.6 -0.6000000000000001 0  1.8 -0.6000000000000001 0  2 -0.6000000000000001 0  -2 -0.3999999999999999 0  -1.8 -0.3999999999999999 0  -1.6 -0.3999999999999999 0  -1.4 -0.3999999999999999 0  -1.2 -0.3999999999999999 0  -1 -0.3999999999999999 0  -0.8 -0.3999999999999999 0  -0.6000000000000001 -0.3999999999999999 0  -0.3999999999999999 -0.3999999999999999 0  -0.2 -0.3999999999999999 0  0 -0.3999999999999999 0  0.2000000000000002 -0.3999999999999999 0  0.3999999999999999 -0.3999999999999999 0  0.6000000000000001 -0.3999999999999999 0  0.7999999999999998 -0.3999999999999999 0  1 -0.3999999999999999 0  1.2 -0.3999999999999999 0  1.4 -0.3999999999999999 0  1.6 -0.3999999999999999 0  1.8 -0.3999999999999999 0  2 -0.3999999999999999 0  -2 -0.2 0  -1.8 -0.2 0  -1.6 -0.2 0  -1.4 -0.2 0  -1.2 -0.2 0  -1 -0.2 0  -0.8 -0.2 0  -0.6000000000000001 -0.2 0  -0.3999999999999999 -0.2 0  -0.2 -0.2 0  0 -0.2 0  0.2000000000000002 -0.2 0  0.3999999999999999 -0.2 0  0.6000000000000001 -0.2 0  0.7999999999999998 -0.2 0  1 -0.2 0  1.2 -0.2 0  1.4 -0.2 0  1.6 -0.2 0  1.8 -0.2 0  2 -0.2 0  -2 0 0  -1.8 0 0  -1.6 0 0  -1.4 0 0  -1.2 0 0  -1 0 0  -0.8 0 0  -0.6000000000000001 0 0  -0.3999999999999999 0 0  -0.2 0 0  0 0 0  0.2000000000000002 0 0  0.3999999999999999 0 0  0.6000000000000001 0 0  0.7999999999999998 0 0  1 0 0  1.2 0 0  1.4 0 0  1.6 0 0  1.8 0 0  2 0 0  -2 0.2000000000000002 0  -1.8 0.2000000000000002 0  -1.6 0.2000000000000002 0  -1.4 0.2000000000000002 0  -1.2 0.2000000000000002 0  -1 0.2000000000000002 0  -0.8 0.2000000000000002 0  -0.6000000000000001 0.2000000000000002 0  -0.3999999999999999 0.2000000000000002 0  -0.2 0.2000000000000002 0  0 0.2000000000000002 0  0.2000000000000002 0.2000000000000002 0  0.3999999999999999 0.2000000000000002 0  0.6000000000000001 0.2000000000000002 0  0.7999999999999998 0.2000000000000002 0  1 0.2000000000000002 0  1.2 0.2000000000000002 0  1.4 0.2000000000000002 0  1.6 0.2000000000000002 0  1.8 0.2000000000000002 0  2 0.2000000000000002 0  -2 0.3999999999999999 0  -1.8 0.3999999999999999 0  -1.6 0.3999999999999999 0  -1.4 0.3999999999999999 0  -1.2 0.3999999999999999 0  -1 0.3999999999999999 0  -0.8 0.3999999999999999 0  -0.6000000000000001 0.3999999999999999 0  -0.3999999999999999 0.3999999999999999 0  -0.2 0.3999999999999999 0  0 0.3999999999999999 0  0.2000000000000002 0.3999999999999999 0  0.3999999999999999 0.3999999999999999 0  0.6000000000000001 0.3999999999999999 0  0.7999999999999998 0.3999999999999999 0  1 0.3999999999999999 0  1.2 0.3999999999999999 0  1.4 0.3999999999999999 0  1.6 0.3999999999999999 0  1.8 0.3999999999999999 0  2 0.3999999999999999 0  -2 0.6000000000000001 0  -1.8 0.6000000000000001 0  -1.6 0.6000000000000001 0  -1.4 0.6000000000000001 0  -1.2 0.6000000000000001 0  -1 0.6000000000000001 0  -0.8 0.6000000000000001 0  -0.6000000000000001 0.6000000000000001 0  -0.3999999999999999 0.6000000000000001 0  -0.2 0.6000000000000001 0  0 0.6000000000000001 0  0.2000000000000002 0.6000000000000001 0  0.3999999999999999 0.6000000000000001 0  0.6000000000000001 0.6000000000000001 0  0.7999999999999998 0.6000000000000001 0  1 0.6000000000000001 0  1.2 0.6000000000000001 0  1.4 0.6000000000000001 0  1.6 0.6000000000000001 0  1.8 0.6000000000000001 0  2 0.6000000000000001 0  -2 0.7999999999999998 0  -1.8 0.7999999999999998 0  -1.6 0.7999999999999998 0  -1.4 0.7999999999999998 0  -1.2 0.7999999999999998 0  -1 0.7999999999999998 0  -0.8 0.7999999999999998 0  -0.6000000000000001 0.7999999999999998 0  -0.3999999999999999 0.7999999999999998 0  -0.2 0.7999999999999998 0  0 0.7999999999999998 0  0.2000000000000002 0.7999999999999998 0  0.3999999999999999 0.7999999999999998 0  0.6000000000000001 0.7999999999999998 0  0.7999999999999998 0.7999999999999998 0  1 0.7999999999999998 0  1.2 0.7999999999999998 0  1.4 0.7999999999999998 0  1.6 0.7999999999999998 0  1.8 0.7999999999999998 0  2 0.7999999999999998 0  -2 1 0  -1.8 1 0  -1.6 1 0  -1.4 1 0  -1.2 1 0  -1 1 0  -0.8 1 0  -0.6000000000000001 1 0  -0.3999999999999999 1 0  -0.2 1 0  0 1 0  0.2000000000000002 1 0  0.3999999999999999 1 0  0.6000000000000001 1 0  0.7999999999999998 1 0  1 1 0  1.2 1 0  1.4 1 0  1.6 1 0  1.8 1 0  2 1 0  -2 1.2 0  -1.8 1.2 0  -1.6 1.2 0  -1.4 1.2 0  -1.2 1.2 0  -1 1.2 0  -0.8 1.2 0  -0.6000000000000001 1.2 0  -0.3999999999999999 1.2 0  -0.2 1.2 0  0 1.2 0  0.2000000000000002 1.2 0  0.3999999999999999 1.2 0  0.6000000000000001 1.2 0  0.7999999999999998 1.2 0  1 1.2 0  1.2 1.2 0  1.4 1.2 0  1.6 1.2 0  1.8 1.2 0  2 1.2 0  -2 1.4 0  -1.8 1.4 0  -1.6 1.4 0  -1.4 1.4 0  -1.2 1.4 0  -1 1.4 0  -0.8 1.4 0  -0.6000000000000001 1.4 0  -0.3999999999999999 1.4 0  -0.2 1.4 0  0 1.4 0  0.2000000000000002 1.4 0  0.3999999999999999 1.4 0  0.6000000000000001 1.4 0  0.7999999999999998 1.4 0  1 1.4 0  1.2 1.4 0  1.4 1.4 0  1.6 1.4 0  1.8 1.4 0  2 1.4 0  -2 1.6 0  -1.8 1.6 0  -1.6 1.6 0  -1.4 1.6 0  -1.2 1.6 0  -1 1.6 0  -0.8 1.6 0  -0.6000000000000001 1.6 0  -0.3999999999999999 1.6 0  -0.2 1.6 0  0 1.6 0  0.2000000000000002 1.6 0  0.3999999999999999 1.6 0  0.6000000000000001 1.6 0  0.7999999999999998 1.6 0  1 1.6 0  1.2 1.6 0  1.4 1.6 0  1.6 1.6 0  1.8 1.6 0  2 1.6 0  -2 1.8 0  -1.8 1.8 0  -1.6 1.8 0  -1.4 1.8 0  -1.2 1.8 0  -1 1.8 0  -0.8 1.8 0  -0.6000000000000001 1.8 0  -0.3999999999999999 1.8 0  -0.2 1.8 0  0 1.8 0  0.2000000000000002 1.8 0  0.3999999999999999 1.8 0  0.6000000000000001 1.8 0  0.7999999999999998 1.8 0  1 1.8 0  1.2 1.8 0  1.4 1.8 0  1.6 1.8 0  1.8 1.8 0  2 1.8 0  -2 2 0  -1.8 2 0  -1.6 2 0  -1.4 2 0  -1.2 2 0  -1 2 0  -0.8 2 0  -0.6000000000000001 2 0  -0.3999999999999999 2 0  -0.2 2 0  0 2 0  0.2000000000000002 2 0  0.3999999999999999 2 0  0.6000000000000001 2 0  0.7999999999999998 2 0  1 2 0  1.2 2 0  1.4 2 0  1.6 2 0  1.8 2 0  2 2 0  </DataArray>
</Points>
<Cells>
[...]
<PointData  Scalars="f_8"> 
<DataArray  type="Float64"  Name="f_8"  format="ascii">4.0581659702856110e-01  4.0434856566432220e-01  4.0069538952952127e-01  3.9492183905351497e-01  3.8715979504239773e-01  3.7759916229931939e-01  3.6647930292922798e-01  3.5408039480737680e-01  3.4071451658782204e-01  3.2671648497777683e-01  3.1243459052961914e-01  2.9822143447931482e-01  2.8442508564502866e-01  2.7138076968004304e-01  2.5940328589305550e-01  2.4878033109973013e-01  2.3976690822545554e-01  2.3258102586559118e-01  2.2740097755870139e-01  2.2436466465804866e-01  2.2357176026302572e-01  4.0514721950059696e-01  4.0397457479016946e-01  4.0051320578173960e-01  3.9486904874185913e-01  3.8719735137816003e-01  3.7770127247941371e-01  3.6662769027630049e-01  3.5426105683774012e-01  3.4091590473418593e-01  3.2692848452377760e-01  3.1264793317052680e-01  2.9842731540814549e-01  2.8461482773458402e-01  2.7154540150763012e-01  2.5953288487738940e-01  2.4886292170209065e-01  2.3978657677596432e-01  2.3251467462133538e-01  2.2721271038785373e-01  2.2399602938173649e-01  2.2292470611167289e-01  4.0498571258407007e-01  4.0383507745107805e-01  4.0041453480045103e-01  3.9481608750241076e-01  3.8718808630326551e-01  3.7773037306224488e-01  3.6668830544816550e-01  3.5434570599796816e-01  3.4101691764942005e-01  3.2703821970357716e-01  3.1275888715747929e-01  2.9853217637819801e-01  2.8470650005057063e-01  2.7161702089467632e-01  2.5957785261758548e-01  2.4887501350660318e-01  2.3976023874464250e-01  2.3244572848035114e-01  2.2709989850541756e-01  2.2384422229906883e-01  2.2275133017124843e-01  4.0493344539523246e-01  4.0378693439401453e-01  4.0037744330193337e-01  3.9479439435167041e-01  3.8718362858042971e-01  3.7774291071656846e-01  3.6671601703516082e-01  3.5438563881061130e-01  3.4106536483174216e-01  3.2709102844592913e-01  3.1281171216758052e-01  2.9858069490669292e-01  2.8474660485927872e-01  2.7164500814279663e-01  2.5959062332033972e-01  2.4887030932114129e-01  2.3973693303296129e-01  2.3240418641921262e-01  2.2704239349740657e-01  2.2377532479686385e-01  2.2267801709694698e-01  4.0491833833296276e-01  4.0377310634564861e-01  4.0036731087839045e-01  3.9478978215017274e-01  3.8718557996356079e-01  3.7775164676119760e-01  3.6673099626123484e-01  3.5440567686589575e-01  3.4108878502698936e-01  3.2711582452690791e-01  3.1283571247744951e-01  2.9860172232426124e-01  2.8476263014844244e-01  2.7165429602955982e-01  2.5959187083947949e-01  2.4886277452653116e-01  2.3972054852965441e-01  2.3237964568302000e-01  2.2701118819427271e-01  2.2373969926415199e-01  2.2264079681997867e-01  4.0491668473042797e-01  4.0377189986594630e-01  4.0036740342298416e-01  3.9479184274814888e-01  3.8719000732026304e-01  3.7775852388387077e-01  3.6674008551518317e-01  3.5441644891983787e-01  3.4110047341994459e-01  3.2712749768080690e-01  3.1284635590781623e-01  2.9861032495397205e-01  2.8476826965533236e-01  2.7165621886294511e-01  2.5958956282131568e-01  2.4885601777956895e-01  2.3970945991114564e-01  2.3236469117032929e-01  2.2699316725278956e-01  2.2371969399573247e-01  2.2262008394072927e-01  4.0491913239942490e-01  4.0377449715102248e-01  4.0037042591028693e-01  3.9479550050459544e-01  3.8719441006243915e-01  3.7776365951901619e-01  3.6674581371651210e-01  3.5442250932301467e-01  3.4110650654304525e-01  3.2713307576767608e-01  3.1285102045922569e-01  2.9861362760052684e-01  2.8476981311220240e-01  2.7165569489170310e-01  2.5958678434938143e-01  2.4885094257697477e-01  2.3970220352854152e-01  2.3235552728082262e-01  2.2698251423398061e-01  2.2370808767113992e-01  2.2260813795428011e-01  4.0492206817708565e-01  4.0377747425010801e-01  4.0037351285656902e-01  3.9479874140876875e-01  3.8719781135579984e-01  3.7776718144970095e-01  3.6674936756452176e-01  3.5442596055921727e-01  3.4110968349688348e-01  3.2713578284388711e-01  3.1285305457801915e-01  2.9861479632347898e-01  2.8476995283841555e-01  2.7165468754242500e-01  2.5958457108452082e-01  2.4884753329174000e-01  2.3969768115973950e-01  2.3235004631405370e-01  2.2697629324959956e-01  2.2370139629294622e-01  2.2260127914084787e-01  4.0492436318453817e-01  4.0377977427731743e-01  4.0037582046435222e-01  3.9480105020959827e-01  3.8720010121296383e-01  3.7776941546686010e-01  3.6675149128174411e-01  3.5442790350622544e-01  3.4111136298861172e-01  3.2713710966795778e-01  3.1285394003886541e-01  2.9861515998430754e-01  2.8476973024298041e-01  2.7165383720128755e-01  2.5958308006974667e-01  2.4884542089317127e-01  2.3969500020794232e-01  2.3234688196193823e-01  2.2697275921680271e-01  2.2369762880103056e-01  2.2259742898472415e-01  4.0492592024016871e-01  4.0378132644835557e-01  4.0037735456772111e-01  3.9480254988000762e-01  3.8720154526101797e-01  3.7777077693715927e-01  3.6675273738004688e-01  3.5442899646293874e-01  3.4111226181897208e-01  3.2713777268960414e-01  3.1285432792511886e-01  2.9861523907338494e-01  2.8476947579341044e-01  2.7165323628295834e-01  2.5958213380693662e-01  2.4884414582745754e-01  2.3969342862054735e-01  2.3234506108126102e-01  2.2697074933102038e-01  2.2369550039024055e-01  2.2259525907392361e-01  4.0492701724146785e-01  4.0378241694087447e-01  4.0037842406907076e-01  3.9480358259600984e-01  3.8720252345861705e-01  3.7777168065349226e-01  3.6675354454718023e-01  3.5442968347904180e-01  3.4111280454468040e-01  3.2713814779889505e-01  3.1285451449836921e-01  2.9861522029039306e-01  2.8476924056856762e-01  2.7165278068444759e-01  2.5958146211639277e-01  2.4884327112429289e-01  2.3969237281348937e-01  2.3234385435518085e-01  2.2696942902594489e-01  2.2369410937737022e-01  2.2259384373634644e-01  4.0492804530925919e-01  4.0378343853753534e-01  4.0037942554560108e-01  3.9480454895737083e-01  3.8720343773432020e-01  3.7777252360879382e-01  3.6675429481059324e-01  3.5443031811317971e-01  3.4111330003620449e-01  3.2713848139521717e-01  3.1285466577866250e-01  2.9861517283008182e-01  2.8476898354208197e-01  2.7165231025148218e-01  2.5958078245172878e-01  2.4884239497881522e-01  2.3969132153183284e-01  2.3234265732020942e-01  2.2696812254823617e-01  2.2369273509495446e-01  2.2259244663200228e-01  4.0492942287407302e-01  4.0378481063488514e-01  4.0038078097396801e-01  3.9480587322060279e-01  3.8720471142364310e-01  3.7777372150454480e-01  3.6675538585543865e-01  3.5443126630703004e-01  3.4111406619958357e-01  3.2713902565381558e-01  3.1285495054598211e-01  2.9861516601324228e-01  2.8476866167089782e-01  2.7165166123325762e-01  2.5957980768237759e-01  2.4884111059198147e-01  2.3968975863761582e-01  2.3234086116880898e-01  2.2696615064517081e-01  2.2369065438620125e-01  2.2259032996126582e-01  4.0493152123944104e-01  4.0378691112967230e-01  4.0038288758575952e-01  3.9480798068976969e-01  3.8720680060926665e-01  3.7777575660104940e-01  3.6675731382120891e-01  3.5443301860344989e-01  3.4111556268504162e-01  3.2714018025891040e-01  3.1285567818992072e-01  2.9861539011467686e-01  2.8476832155992354e-01  2.7165071878165786e-01  2.5957825253124955e-01  2.4883896346398074e-01  2.3968707236954570e-01  2.3233771928271102e-01  2.2696266348362598e-01  2.2368695305694550e-01  2.2258655854819023e-01  4.0493442633805532e-01  4.0378985128209405e-01  4.0038592900123077e-01  3.9481116417948953e-01  3.8721012893359064e-01  3.7777918673562533e-01  3.6676075493924415e-01  3.5443633585903583e-01  3.4111858626422475e-01  3.2714271869067268e-01  3.1285753459021204e-01  2.9861637986145334e-01  2.8476828984345887e-01  2.7164955651904771e-01  2.5957590925963853e-01  2.4883545602556698e-01  2.3968248847455870e-01  2.3233221539246399e-01  2.2695645690136473e-01  2.2368030864317295e-01  2.2257977105462501e-01  4.0493728795765388e-01  4.0379285632322631e-01  4.0038934208197968e-01  3.9481518119420861e-01  3.8721484410278206e-01  3.7778457333391025e-01  3.6676666090788296e-01  3.5444249356944396e-01  3.4112463436728729e-01  3.2714823321698744e-01  3.1286206612801754e-01  2.9861949358699041e-01  2.8476960528770640e-01  2.7164878413431182e-01  2.5957288104931625e-01  2.4883014771577644e-01  2.3967503098151621e-01  2.3232289376825627e-01  2.2694569565596723e-01  2.2366864348017745e-01  2.2256780869042028e-01  4.0493681719926822e-01  4.0379284236574631e-01  4.0039060960991124e-01  3.9481836289747579e-01  3.8722029905656519e-01  3.7779234734503214e-01  3.6677648608167485e-01  3.5445382014270083e-01  3.4113668656630020e-01  3.2716008122579221e-01  3.1287270727567401e-01  2.9862793702385010e-01  2.8477495539949599e-01  2.7165031856215016e-01  2.5957011935211471e-01  2.4882290641047700e-01  2.3966346001069513e-01  2.3230748863327771e-01  2.2692727906235199e-01  2.2364831131998331e-01  2.2254683890749979e-01  4.0492390547008444e-01  4.0378127843025197e-01  4.0038274720832823e-01  3.9481594339378623e-01  3.8722428161464073e-01  3.7780288077597540e-01  3.6679297512264286e-01  3.5447504700514981e-01  3.4116096036363569e-01  3.2718539803126190e-01  3.1289691095614136e-01  2.9864887593597705e-01  2.8479063306826213e-01  2.7165903795878327e-01  2.5957062041089746e-01  2.4881449470177414e-01  2.3964612046312944e-01  2.3228197118877378e-01  2.2689513282593568e-01  2.2361183141447297e-01  2.2250888178555894e-01  4.0487485342775115e-01  4.0373658124081635e-01  4.0034913613919770e-01  3.9479756970444374e-01  3.8722283595738949e-01  3.7781803170266942e-01  3.6682285559430305e-01  3.5451669176505096e-01  3.4121067118041465e-01  3.2723904224796635e-01  3.1295016772583711e-01  2.9869744632654888e-01  2.8483043041083839e-01  2.7168637561356335e-01  2.5958241601968796e-01  2.4880851219794015e-01  2.3962127107764680e-01  2.3223868649937771e-01  2.2683579360472614e-01  2.2354115830782598e-01  2.2243401139447574e-01  4.0471746209270715e-01  4.0360172034316072e-01  4.0025474863118499e-01  3.9474823757613692e-01  3.8721650984919015e-01  3.7784945589798485e-01  3.6688528787710983e-01  3.5460275796211577e-01  3.4131278852457764e-01  3.2734963081168833e-01  3.1306175709006384e-01  2.9880272827823473e-01  2.8492228318397012e-01  2.7175787920260996e-01  2.5962688782230714e-01  2.4881962100667657e-01  2.3959334689437464e-01  2.3216745852367557e-01  2.2672000673265671e-01  2.2338592902553320e-01  2.2225755328898389e-01  4.0405585759615659e-01  4.0323098217908071e-01  4.0007332511607702e-01  3.9469492854122429e-01  3.8725300988952827e-01  3.7795043191669175e-01  3.6703274761768767e-01  3.5478286823852806e-01  3.4151408992799859e-01  3.2756203897299840e-01  3.1327598894770525e-01  2.9900992803776494e-01  2.8511369127329672e-01  2.7192441018554364e-01  2.5975846626854299e-01  2.4890406101379511e-01  2.3961442935380620e-01  2.3210161565023535e-01  2.2653058310874377e-01  2.2301320296121593e-01  2.2160130318208904e-01  </DataArray> 
</PointData> 
</Piece>
</UnstructuredGrid>
</VTKFile>