<?xml version="1.0"?>
<VTKFile type="UnstructuredGrid"  version="0.1"  >
<UnstructuredGrid>
<Piece  NumberOfPoints="441" NumberOfCells="800">
<Points>
<DataArray  type="Float64"  NumberOfComponents="3"  format="ascii">-2 -2 0  -1.8 -2 0  -1.6 -2 0  -1.4 -2 0  -1.2 -2 0  -1 -2 0  -0.8 -2 0  -0.6000000000000001 -2 0  -0.3999999999999999 -2 0  -0.2 -2 0  0 -2 0  0.2000000000000002 -2 0  0.3999999999999999 -2 0  0.6000000000000001 -2 0  0.7999999999999998 -2 0  1 -2 0  1.2 -2 0  1.4 -2 0  1.6 -2 0  1.8 -2 0  2 -2 0  -2 -1.8 0  -1.8 -1.8 0  -1.6 -1.8 0  -1.4 -1.8 0  -1.2 -1.8 0  -1 -1.8 0  -0.8 -1.8 0  -0.6000000000000001 -1.8 0  -0.3999999999999999 -1.8 0  -0.2 -1.8 0  0 -1.8 0  0.2000000000000002 -1.8 0  0.3999999999999999 -1.8 0  0.6000000000000001 -1.8 0  0.7999999999999998 -1.8 0  1 -1.8 0  1.2 -1.8 0  1.4 -1.8 0  1.6 -1.8 0  1.8 -1.8 0  2 -1.8 0  -2 -1.6 0  -1.8 -1.6 0  -1.6 -1.6 0  -1.4 -1.6 0  -1.2 -1.6 0  -1 -1.6 0  -0.8 -1.6 0  -0.6000000000000001 -1.6 0  -0.3999999999999999 -1.6 0  -0.2 -1.6 0  0 -1.6 0  0.2000000000000002 -1.6 0  0.3999999999999999 -1.6 0  0.6000000000000001 -1.6 0  0.7999999999999998 -1.6 0  1 -1.6 0  1.2 -1.6 0  1.4 -1.6 0  1.6 -1.6 0  1.8 -1.6 0  2 -1.6 0  -2 -1.4 0  -1.8 -1.4 0  -1.6 -1.4 0  -1.4 -1.4 0  -1.2 -1.4 0  -1 -1.4 0  -0.8 -1.4 0  -0.6000000000000001 -1.4 0  -0.3999999999999999 -1.4 0  -0.2 -1.4 0  0 -1.4 0  0.2000000000000002 -1.4 0  0.3999999999999999 -1.4 0  0.6000000000000001 -1.4 0  0.7999999999999998 -1.4 0  1 -1.4 0  1.2 -1.4 0  1.4 -1.4 0  1.6 -1.4 0  1.8 -1.4 0  2 -1.4 0  -2 -1.2 0  -1.8 -1.2 0  -1.6 -1.2 0  -1.4 -1.2 0  -1.2 -1.2 0  -1 -1.2 0  -0.8 -1.2 0  -0.6000000000000001 -1.2 0  -0.3999999999999999 -1.2 0  -0.2 -1.2 0  0 -1.2 0  0.2000000000000002 -1.2 0  0.3999999999999999 -1.2 0  0.6000000000000001 -1.2 0  0.7999999999999998 -1.2 0  1 -1.2 0  1.2 -1.2 0  1.4 -1.2 0  1.6 -1.2 0  1.8 -1.2 0  2 -1.2 0  -2 -1 0  -1.8 -1 0  -1.6 -1 0  -1.4 -1 0  -1.2 -1 0  -1 -1 0  -0.8 -1 0  -0.6000000000000001 -1 0  -0.3999999999999999 -1 0  -0.2 -1 0  0 -1 0  0.2000000000000002 -1 0  0.3999999999999999 -1 0  0.6000000000000001 -1 0  0.7999999999999998 -1 0  1 -1 0  1.2 -1 0  1.4 -1 0  1.6 -1 0  1.8 -1 0  2 -1 0  -2 -0.8 0  -1.8 -0.8 0  -1.6 -0.8 0  -1.4 -0.8 0  -1.2 -0.8 0  -1 -0.8 0  -0.8 -0.8 0  -0.6000000000000001 -0.8 0  -0.3999999999999999 -0.8 0  -0.2 -0.8 0  0 -0.8 0  0.2000000000000002 -0.8 0  0.3999999999999999 -0.8 0  0.6000000000000001 -0.8 0  0.7999999999999998 -0.8 0  1 -0.8 0  1.2 -0.8 0  1.4 -0.8 0  1.6 -0.8 0  1.8 -0.8 0  2 -0.8 0  -2 -0.6000000000000001 0  -1.8 -0.6000000000000001 0  -1.6 -0.6000000000000001 0  -1.4 -0.6000000000000001 0  -1.2 -0.6000000000000001 0  -1 -0.6000000000000001 0  -0.8 -0.6000000000000001 0  -0.6000000000000001 -0.6000000000000001 0  -0.3999999999999999 -0.6000000000000001 0  -0.2 -0.6000000000000001 0  0 -0.6000000000000001 0  0.2000000000000002 -0.6000000000000001 0  0.3999999999999999 -0.6000000000000001 0  0.6000000000000001 -0.6000000000000001 0  0.7999999999999998 -0.6000000000000001 0  1 -0.6000000000000001 0  1.2 -0.6000000000000001 0  1.4 -0.6000000000000001 0  1.6 -0.6000000000000001 0  1.8 -0.6000000000000001 0  2 -0.6000000000000001 0  -2 -0.3999999999999999 0  -1.8 -0.3999999999999999 0  -1.6 -0.3999999999999999 0  -1.4 -0.3999999999999999 0  -1.2 -0.3999999999999999 0  -1 -0.3999999999999999 0  -0.8 -0.3999999999999999 0  -0.6000000000000001 -0.3999999999999999 0  -0.3999999999999999 -0.3999999999999999 0  -0.2 -0.3999999999999999 0  0 -0.3999999999999999 0  0.2000000000000002 -0.3999999999999999 0  0.3999999999999999 -0.3999999999999999 0  0.6000000000000001 -0.3999999999999999 0  0.7999999999999998 -0.3999999999999999 0  1 -0.3999999999999999 0  1.2 -0.3999999999999999 0  1.4 -0.3999999999999999 0  1.6 -0.3999999999999999 0  1.8 -0.3999999999999999 0  2 -0.3999999999999999 0  -2 -0.2 0  -1.8 -0.2 0  -1.6 -0.2 0  -1.4 -0.2 0  -1.2 -0.2 0  -1 -0.2 0  -0.8 -0.2 0  -0.6000000000000001 -0.2 0  -0.3999999999999999 -0.2 0  -0.2 -0.2 0  0 -0.2 0  0.2000000000000002 -0.2 0  0.3999999999999999 -0.2 0  0.6000000000000001 -0.2 0  0.7999999999999998 -0.2 0  1 -0.2 0  1.2 -0.2 0  1.4 -0.2 0  1.6 -0.2 0  1.8 -0.2 0  2 -0.2 0  -2 0 0  -1.8 0 0  -1.6 0 0  -1.4 0 0  -1.2 0 0  -1 0 0  -0.8 0 0  -0.6000000000000001 0 0  -0.3999999999999999 0 0  -0.2 0 0  0 0 0  0.2000000000000002 0 0  0.3999999999999999 0 0  0.6000000000000001 0 0  0.7999999999999998 0 0  1 0 0  1.2 0 0  1.4 0 0  1.6 0 0  1.8 0 0  2 0 0  -2 0.2000000000000002 0  -1.8 0.2000000000000002 0  -1.6 0.2000000000000002 0  -1.4 0.2000000000000002 0  -1.2 0.2000000000000002 0  -1 0.2000000000000002 0  -0.8 0.2000000000000002 0  -0.6000000000000001 0.2000000000000002 0  -0.3999999999999999 0.2000000000000002 0  -0.2 0.2000000000000002 0  0 0.2000000000000002 0  0.2000000000000002 0.2000000000000002 0  0.3999999999999999 0.2000000000000002 0  0.6000000000000001 0.2000000000000002 0  0.7999999999999998 0.2000000000000002 0  1 0.2000000000000002 0  1.2 0.2000000000000002 0  1.4 0.2000000000000002 0  1.6 0.2000000000000002 0  1.8 0.2000000000000002 0  2 0.2000000000000002 0  -2 0.3999999999999999 0  -1.8 0.3999999999999999 0  -1.6 0.3999999999999999 0  -1.4 0.3999999999999999 0  -1.2 0.3999999999999999 0  -1 0.3999999999999999 0  -0.8 0.3999999999999999 0  -0.6000000000000001 0.3999999999999999 0  -0.3999999999999999 0.3999999999999999 0  -0.2 0.3999999999999999 0  0 0.3999999999999999 0  0.2000000000000002 0.3999999999999999 0  0.3999999999999999 0.3999999999999999 0  0.6000000000000001 0.3999999999999999 0  0.7999999999999998 0.3999999999999999 0  1 0.3999999999999999 0  1.2 0.3999999999999999 0  1.4 0.3999999999999999 0  1.6 0.3999999999999999 0  1.8 0.3999999999999999 0  2 0.3999999999999999 0  -2 0.6000000000000001 0  -1.8 0.6000000000000001 0  -1.6 0.6000000000000001 0  -1.4 0.6000000000000001 0  -1.2 0.6000000000000001 0  -1 0.6000000000000001 0  -0.8 0.6000000000000001 0  -0.6000000000000001 0.6000000000000001 0  -0.3999999999999999 0.6000000000000001 0  -0.2 0.6000000000000001 0  0 0.6000000000000001 0  0.2000000000000002 0.6000000000000001 0  0.3999999999999999 0.6000000000000001 0  0.6000000000000001 0.6000000000000001 0  0.7999999999999998 0.6000000000000001 0  1 0.6000000000000001 0  1.2 0.6000000000000001 0  1.4 0.6000000000000001 0  1.6 0.6000000000000001 0  1.8 0.6000000000000001 0  2 0.6000000000000001 0  -2 0.7999999999999998 0  -1.8 0.7999999999999998 0  -1.6 0.7999999999999998 0  -1.4 0.7999999999999998 0  -1.2 0.7999999999999998 0  -1 0.7999999999999998 0  -0.8 0.7999999999999998 0  -0.6000000000000001 0.7999999999999998 0  -0.3999999999999999 0.7999999999999998 0  -0.2 0.7999999999999998 0  0 0.7999999999999998 0  0.2000000000000002 0.7999999999999998 0  0.3999999999999999 0.7999999999999998 0  0.6000000000000001 0.7999999999999998 0  0.7999999999999998 0.7999999999999998 0  1 0.7999999999999998 0  1.2 0.7999999999999998 0  1.4 0.7999999999999998 0  1.6 0.7999999999999998 0  1.8 0.7999999999999998 0  2 0.7999999999999998 0  -2 1 0  -1.8 1 0  -1.6 1 0  -1.4 1 0  -1.2 1 0  -1 1 0  -0.8 1 0  -0.6000000000000001 1 0  -0.3999999999999999 1 0  -0.2 1 0  0 1 0  0.2000000000000002 1 0  0.3999999999999999 1 0  0.6000000000000001 1 0  0.7999999999999998 1 0  1 1 0  1.2 1 0  1.4 1 0  1.6 1 0  1.8 1 0  2 1 0  -2 1.2 0  -1.8 1.2 0  -1.6 1.2 0  -1.4 1.2 0  -1.2 1.2 0  -1 1.2 0  -0.8 1.2 0  -0.6000000000000001 1.2 0  -0.3999999999999999 1.2 0  -0.2 1.2 0  0 1.2 0  0.2000000000000002 1.2 0  0.3999999999999999 1.2 0  0.6000000000000001 1.2 0  0.7999999999999998 1.2 0  1 1.2 0  1.2 1.2 0  1.4 1.2 0  1.6 1.2 0  1.8 1.2 0  2 1.2 0  -2 1.4 0  -1.8 1.4 0  -1.6 1.4 0  -1.4 1.4 0  -1.2 1.4 0  -1 1.4 0  -0.8 1.4 0  -0.6000000000000001 1.4 0  -0.3999999999999999 1.4 0  -0.2 1.4 0  0 1.4 0  0.2000000000000002 1.4 0  0.3999999999999999 1.4 0  0.6000000000000001 1.4 0  0.7999999999999998 1.4 0  1 1.4 0  1.2 1.4 0  1.4 1.4 0  1.6 1.4 0  1.8 1.4 0  2 1.4 0  -2 1.6 0  -1.8 1.6 0  -1.6 1.6 0  -1.4 1.6 0  -1.2 1.6 0  -1 1.6 0  -0.8 1.6 0  -0.6000000000000001 1.6 0  -0.3999999999999999 1.6 0  -0.2 1.6 0  0 1.6 0  0.2000000000000002 1.6 0  0.3999999999999999 1.6 0  0.6000000000000001 1.6 0  0.7999999999999998 1.6 0  1 1.6 0  1.2 1.6 0  1.4 1.6 0  1.6 1.6 0  1.8 1.6 0  2 1.6 0  -2 1.8 0  -1.8 1.8 0  -1.6 1.8 0  -1.4 1.8 0  -1.2 1.8 0  -1 1.8 0  -0.8 1.8 0  -0.6000000000000001 1.8 0  -0.3999999999999999 1.8 0  -0.2 1.8 0  0 1.8 0  0.2000000000000002 1.8 0  0.3999999999999999 1.8 0  0.6000000000000001 1.8 0  0.7999999999999998 1.8 0  1 1.8 0  1.2 1.8 0  1.4 1.8 0  1.6 1.8 0  1.8 1.8 0  2 1.8 0  -2 2 0  -1.8 2 0  -1.6 2 0  -1.4 2 0  -1.2 2 0  -1 2 0  -0.8 2 0  -0.6000000000000001 2 0  -0.3999999999999999 2 0  -0.2 2 0  0 2 0  0.2000000000000002 2 0  0.3999999999999999 2 0  0.6000000000000001 2 0  0.7999999999999998 2 0  1 2 0  1.2 2 0  1.4 2 0  1.6 2 0  1.8 2 0  2 2 0  </DataArray>
</Points>
<Cells>
[...]
<PointData  Scalars="f_8"> 
<DataArray  type="Float64"  Name="f_8"  format="ascii">3.5816257352907499e-01  3.5745980156705620e-01  3.5571012976892186e-01  3.5294238848336873e-01  3.4921659928900672e-01  3.4461999840568047e-01  3.3926340027986684e-01  3.3327756470777969e-01  3.2680941753324216e-01  3.2001808436271711e-01  3.1307076138068712e-01  3.0613848563440549e-01  2.9939188976234349e-01  2.9299703961837786e-01  2.8711146216567507e-01  2.8188047939109440e-01  2.7743397647361540e-01  2.7388375572663859e-01  2.7132167277852348e-01  2.6981883662587086e-01  2.6942631312680021e-01  3.5784008269645190e-01  3.5727858109442096e-01  3.5562046280655019e-01  3.5291445235588381e-01  3.4923187983244042e-01  3.4466639657179954e-01  3.3933243973505034e-01  3.3336279911440386e-01  3.2690552380918064e-01  3.2012034593121030e-01  3.1317476699353419e-01  3.0623993556283308e-01  2.9948643399299330e-01  2.9308008295741605e-01  2.8717786214597307e-01  2.8192403155218781e-01  2.7744651751593352e-01  2.7385359684875377e-01  2.7123086347898895e-01  2.6963838157217113e-01  2.6910779235995785e-01  3.5775984221683027e-01  3.5720887140226038e-01  3.5557028531783363e-01  3.5288620204399029e-01  3.4922470477481421e-01  3.4467789371029761e-01  3.3935949207492788e-01  3.3340197818841905e-01  3.2695327762996734e-01  3.2017308469272049e-01  3.1322890220188393e-01  3.0629189942809643e-01  2.9953269245852826e-01  2.9311715177502368e-01  2.8720233909794657e-01  2.8193267080553130e-01  2.7743639967282713e-01  2.7382250220268978e-01  2.7117805876204709e-01  2.6956622417349807e-01  2.6902491875409662e-01  3.5773187634726006e-01  3.5718290375026929e-01  3.5554968537343085e-01  3.5287311786572512e-01  3.4922009879495491e-01  3.4468174496663839e-01  3.3937102426335941e-01  3.3341986371125981e-01  3.2697580660579423e-01  3.2019830272077909e-01  3.1325472514880581e-01  3.0631621405923509e-01  2.9955345128985966e-01  2.9313247028905748e-01  2.8721060378511082e-01  2.8193266707105386e-01  2.7742746837519544e-01  2.7380472978363984e-01  2.7115249268419989e-01  2.6953507019248341e-01  2.6899159362751091e-01  3.5772233400972003e-01  3.5717399795719523e-01  3.5554262984459212e-01  3.5286884490148823e-01  3.4921916849015566e-01  3.4468432330933685e-01  3.3937690776782198e-01  3.3342853178546322e-01  3.2698648864428165e-01  3.2021005193905816e-01  3.1326649475660034e-01  3.0632693363300773e-01  2.9956210245036324e-01  2.9313816125140024e-01  2.8721264211556236e-01  2.8193062898192678e-01  2.7742126089313429e-01  2.7379463883303279e-01  2.7113920535713709e-01  2.6951965372438019e-01  2.6897540936337128e-01  3.5772014693111709e-01  3.5717204096427929e-01  3.5554135037622847e-01  3.5286860202949993e-01  3.4922019005794175e-01  3.4468668272775749e-01  3.3938051975730149e-01  3.3343316418017299e-01  3.2699178664987971e-01  3.2021557130208944e-01  3.1327174069461533e-01  3.0633140281015847e-01  2.9956532561534854e-01  2.9313974431377221e-01  2.8721230339879228e-01  2.8192823016701996e-01  2.7741682880719681e-01  2.7378837486770630e-01  2.7113147916916996e-01  2.6951097840193694e-01  2.6896639706643893e-01  3.5772079432310516e-01  3.5717276704064860e-01  3.5554230584748120e-01  3.5286990515447264e-01  3.4922190910653356e-01  3.4468882481422447e-01  3.3938302689358685e-01  3.3343591645200110e-01  3.2699461173505640e-01  3.2021825911739588e-01  3.1327406171767636e-01  3.0633312851193378e-01  2.9956624940493976e-01  2.9313970140555162e-01  2.8721118804769158e-01  2.8192600878657514e-01  2.7741354761238735e-01  2.7378416091613789e-01  2.7112653406994214e-01  2.6950556458223646e-01  2.6896081736033645e-01  3.5772232078252114e-01  3.5717431348129014e-01  3.5554390715408601e-01  3.5287158382623152e-01  3.4922366842560221e-01  3.4469064436810226e-01  3.3938486095182563e-01  3.3343769535179929e-01  3.2699624611197531e-01  3.2021964655423230e-01  3.1327509518673580e-01  3.0633370585327524e-01  2.9956628301063043e-01  2.9313912726216473e-01  2.8720997332291631e-01  2.8192415723077374e-01  2.7741110218494519e-01  2.7378120324320843e-01  2.7112318059579471e-01  2.6950195958400514e-01  2.6895712333405586e-01  3.5772392617050019e-01  3.5717591715145625e-01  3.5554550185989903e-01  3.5287315777438860e-01  3.4922520283444736e-01  3.4469211195965416e-01  3.3938622560436826e-01  3.3343891300695050e-01  3.2699726689362613e-01  3.2022041793106976e-01  3.1327556590557532e-01  3.0633383029373629e-01  2.9956602556637940e-01  2.9313846634151036e-01  2.8720890458202342e-01  2.8192269570512501e-01  2.7740928306676810e-01  2.7377908116062777e-01  2.7112082737741494e-01  2.6949946063127100e-01  2.6895457286033603e-01  3.5772536700888541e-01  3.5717734906983900e-01  3.5554690458395022e-01  3.5287450955701943e-01  3.4922647974536614e-01  3.4469328756672635e-01  3.3938727114410561e-01  3.3343979808525509e-01  3.2699796069747389e-01  3.2022089087356426e-01  3.1327579157637647e-01  3.0633378754870838e-01  2.9956570056751941e-01  2.9313785435256384e-01  2.8720801133712898e-01  2.8192153819657662e-01  2.7740788964155766e-01  2.7377749087067677e-01  2.7111908859099237e-01  2.6949762897768664e-01  2.6895270864048332e-01  3.5772667175314449e-01  3.5717864265680671e-01  3.5554816365418157e-01  3.5287571034742615e-01  3.4922759797244957e-01  3.4469429851406508e-01  3.3938815000218259e-01  3.3344052056125689e-01  3.2699850387952378e-01  3.2022123430148003e-01  3.1327591844278202e-01  3.0633368593298704e-01  2.9956536459277844e-01  2.9313728515372206e-01  2.8720721773678692e-01  2.8192053700389141e-01  2.7740670551647639e-01  2.7377615572933794e-01  2.7111764056502069e-01  2.6949611097717263e-01  2.6895116660420088e-01  3.5772798987784954e-01  3.5717994875096359e-01  3.5554943386980503e-01  3.5287692045324076e-01  3.4922872325359017e-01  3.4469531388003688e-01  3.3938903034869167e-01  3.3344124140069359e-01  3.2699904222173548e-01  3.2022156973447824e-01  3.1327603433543078e-01  3.0633357066123540e-01  2.9956501267962549e-01  2.9313669821199467e-01  2.8720640511322387e-01  2.8191951604230747e-01  2.7740550138541309e-01  2.7377480079330263e-01  2.7111617331525911e-01  2.6949457457458320e-01  2.6894960712002286e-01  3.5772949240641272e-01  3.5718143973474697e-01  3.5555089126543016e-01  3.5287832077381937e-01  3.4923004092129573e-01  3.4469652098695547e-01  3.3939009691365535e-01  3.3344213615240115e-01  3.2699973387832831e-01  3.2022202869305616e-01  3.1327623463705528e-01  3.0633349206185573e-01  2.9956464263784355e-01  2.9313603360214824e-01  2.8720545348714077e-01  2.8191829629432313e-01  2.7740404372068583e-01  2.7377314595578039e-01  2.7111437109433217e-01  2.6949268167298862e-01  2.6894768452373963e-01  3.5773126972539920e-01  3.5718321115622303e-01  3.5555264562323541e-01  3.5288004226287678e-01  3.4923170681333726e-01  3.4469810032429649e-01  3.3939155038238938e-01  3.3344341720185061e-01  3.2700079101928731e-01  3.2022280878648091e-01  3.1327668688659710e-01  3.0633357235365494e-01  2.9956431783230486e-01  2.9313528537614508e-01  2.8720428135118509e-01  2.8191671946660518e-01  2.7740210162628454e-01  2.7377089723074494e-01  2.7111189110416056e-01  2.6949005869333109e-01  2.6894501486433176e-01  3.5773317112678066e-01  3.5718512788261719e-01  3.5555460517635901e-01  3.5288205919996368e-01  3.4923377628352503e-01  3.4470019406100960e-01  3.3939361558520648e-01  3.3344537840009925e-01  3.2700255470351813e-01  3.2022427034572765e-01  3.1327773920597191e-01  3.0633411530643373e-01  2.9956426783787476e-01  2.9313458418510385e-01  2.8720290325919767e-01  2.8191467625036515e-01  2.7739944464175392e-01  2.7376771631975871e-01  2.7110831022079057e-01  2.6948622847684556e-01  2.6894110272556865e-01  3.5773450054694933e-01  3.5718653414954887e-01  3.5555622653483432e-01  3.5288399962087552e-01  3.4923608882848772e-01  3.4470287079676165e-01  3.3939658471699341e-01  3.3344850839879503e-01  3.2700566457226382e-01  3.2022714478172470e-01  3.1328014720096292e-01  3.0633583063295872e-01  2.9956508983854557e-01  2.9313435728847337e-01  2.8720153367786500e-01  2.8191214438467393e-01  2.7739581184632872e-01  2.7376312494009686e-01  2.7110297623625618e-01  2.6948042675347467e-01  2.6893514580445355e-01  3.5773338626788692e-01  3.5718565899469562e-01  3.5555601801179992e-01  3.5288479216253105e-01  3.4923808348635699e-01  3.4470611457435413e-01  3.3940096840897199e-01  3.3345377991675645e-01  3.2701145418052013e-01  3.2023299880559414e-01  3.1328556717431955e-01  3.0634031526820737e-01  2.9956817749864628e-01  2.9313566675642033e-01  2.8720080093538364e-01  2.8190925284380530e-01  2.7739081308647073e-01  2.7375624663083153e-01  2.7109461384808148e-01  2.6947111633936899e-01  2.6892551723518066e-01  3.5772533031909720e-01  3.5717827783109324e-01  3.5555049015310602e-01  3.5288200513708190e-01  3.4923855143557181e-01  3.4470996180367730e-01  3.3940795677348651e-01  3.3346336209052391e-01  3.2702284060954312e-01  3.2024523096005930e-01  3.1329759309030314e-01  3.0635106547330421e-01  2.9957664054589961e-01  2.9314096395977163e-01  2.8720225957094958e-01  2.8190647595453161e-01  2.7738374185825454e-01  2.7374520778614470e-01  2.7108033949238419e-01  2.6945471786114578e-01  2.6890839117937265e-01  3.5769919888172336e-01  3.5715425416449359e-01  3.5553184861082593e-01  3.5287080009655991e-01  3.4923567389526944e-01  3.4471534328882270e-01  3.3942079257880131e-01  3.3348230934296152e-01  3.2704618208557590e-01  3.2027100899651023e-01  3.1332372187353646e-01  3.0637543041774978e-01  2.9959719306640908e-01  2.9315581980963812e-01  2.8720980933575163e-01  2.8190551691155913e-01  2.7737364000940101e-01  2.7372609453334085e-01  2.7105333274052068e-01  2.6942211875273464e-01  2.6887371728116932e-01  3.5762109397926350e-01  3.5708690827726269e-01  3.5548385695344281e-01  3.5284441801476568e-01  3.4923003236734607e-01  3.4472807225963192e-01  3.3944882266637422e-01  3.3352225753613196e-01  3.2709453219079865e-01  3.2032419423953029e-01  3.1337816289756626e-01  3.0642755434201091e-01  2.9964344651561065e-01  2.9319268532750153e-01  2.8723383876925557e-01  2.8191340897219086e-01  2.7736241813783030e-01  2.7369349769018625e-01  2.7099863938381058e-01  2.6934782717093619e-01  2.6878888556466546e-01  3.5730249557968280e-01  3.5690740068275084e-01  3.5539468577522626e-01  3.5281633070019230e-01  3.4924486012640560e-01  3.4477393033040415e-01  3.3951737021486816e-01  3.3360713409804182e-01  3.2719046714093919e-01  3.2042649897178410e-01  3.1348243439239348e-01  3.0652948349374343e-01  2.9973865646652958e-01  2.9327653457809844e-01  2.8730111406173026e-01  2.8195780057811443e-01  2.7737560444213355e-01  2.7366354489722666e-01  2.7090720507279548e-01  2.6916526971389171e-01  2.6846569292328359e-01  </DataArray> 
</PointData> 
</Piece>
</UnstructuredGrid>
</VTKFile>