<?xml version="1.0"?>
<VTKFile type="UnstructuredGrid"  version="0.1"  >
<UnstructuredGrid>
<Piece  NumberOfPoints="441" NumberOfCells="800">
<Points>
<DataArray  type="Float64"  NumberOfComponents="3"  format="ascii">-2 -2 0  -1.8 -2 0  -1.6 -2 0  -1.4 -2 0  -1.2 -2 0  -1 -2 0  -0.8 -2 0  -0.6000000000000001 -2 0  -0.3999999999999999 -2 0  -0.2 -2 0  0 -2 0  0.2000000000000002 -2 0  0.3999999999999999 -2 0  0.6000000000000001 -2 0  0.7999999999999998 -2 0  1 -2 0  1.2 -2 0  1.4 -2 0  1.6 -2 0  1.8 -2 0  2 -2 0  -2 -1.8 0  -1.8 -1.8 0  -1.6 -1.8 0  -1.4 -1.8 0  -1.2 -1.8 0  -1 -1.8 0  -0.8 -1.8 0  -0.6000000000000001 -1.8 0  -0.3999999999999999 -1.8 0  -0.2 -1.8 0  0 -1.8 0  0.2000000000000002 -1.8 0  0.3999999999999999 -1.8 0  0.6000000000000001 -1.8 0  0.7999999999999998 -1.8 0  1 -1.8 0  1.2 -1.8 0  1.4 -1.8 0  1.6 -1.8 0  1.8 -1.8 0  2 -1.8 0  -2 -1.6 0  -1.8 -1.6 0  -1.6 -1.6 0  -1.4 -1.6 0  -1.2 -1.6 0  -1 -1.6 0  -0.8 -1.6 0  -0.6000000000000001 -1.6 0  -0.3999999999999999 -1.6 0  -0.2 -1.6 0  0 -1.6 0  0.2000000000000002 -1.6 0  0.3999999999999999 -1.6 0  0.6000000000000001 -1.6 0  0.7999999999999998 -1.6 0  1 -1.6 0  1.2 -1.6 0  1.4 -1.6 0  1.6 -1.6 0  1.8 -1.6 0  2 -1.6 0  -2 -1.4 0  -1.8 -1.4 0  -1.6 -1.4 0  -1.4 -1.4 0  -1.2 -1.4 0  -1 -1.4 0  -0.8 -1.4 0  -0.6000000000000001 -1.4 0  -0.3999999999999999 -1.4 0  -0.2 -1.4 0  0 -1.4 0  0.2000000000000002 -1.4 0  0.3999999999999999 -1.4 0  0.6000000000000001 -1.4 0  0.7999999999999998 -1.4 0  1 -1.4 0  1.2 -1.4 0  1.4 -1.4 0  1.6 -1.4 0  1.8 -1.4 0  2 -1.4 0  -2 -1.2 0  -1.8 -1.2 0  -1.6 -1.2 0  -1.4 -1.2 0  -1.2 -1.2 0  -1 -1.2 0  -0.8 -1.2 0  -0.6000000000000001 -1.2 0  -0.3999999999999999 -1.2 0  -0.2 -1.2 0  0 -1.2 0  0.2000000000000002 -1.2 0  0.3999999999999999 -1.2 0  0.6000000000000001 -1.2 0  0.7999999999999998 -1.2 0  1 -1.2 0  1.2 -1.2 0  1.4 -1.2 0  1.6 -1.2 0  1.8 -1.2 0  2 -1.2 0  -2 -1 0  -1.8 -1 0  -1.6 -1 0  -1.4 -1 0  -1.2 -1 0  -1 -1 0  -0.8 -1 0  -0.6000000000000001 -1 0  -0.3999999999999999 -1 0  -0.2 -1 0  0 -1 0  0.2000000000000002 -1 0  0.3999999999999999 -1 0  0.6000000000000001 -1 0  0.7999999999999998 -1 0  1 -1 0  1.2 -1 0  1.4 -1 0  1.6 -1 0  1.8 -1 0  2 -1 0  -2 -0.8 0  -1.8 -0.8 0  -1.6 -0.8 0  -1.4 -0.8 0  -1.2 -0.8 0  -1 -0.8 0  -0.8 -0.8 0  -0.6000000000000001 -0.8 0  -0.3999999999999999 -0.8 0  -0.2 -0.8 0  0 -0.8 0  0.2000000000000002 -0.8 0  0.3999999999999999 -0.8 0  0.6000000000000001 -0.8 0  0.7999999999999998 -0.8 0  1 -0.8 0  1.2 -0.8 0  1.4 -0.8 0  1.6 -0.8 0  1.8 -0.8 0  2 -0.8 0  -2 -0.6000000000000001 0  -1.8 -0.6000000000000001 0  -1.6 -0.6000000000000001 0  -1.4 -0.6000000000000001 0  -1.2 -0.6000000000000001 0  -1 -0.6000000000000001 0  -0.8 -0.6000000000000001 0  -0.6000000000000001 -0.6000000000000001 0  -0.3999999999999999 -0.6000000000000001 0  -0.2 -0.6000000000000001 0  0 -0.6000000000000001 0  0.2000000000000002 -0.6000000000000001 0  0.3999999999999999 -0.6000000000000001 0  0.6000000000000001 -0.6000000000000001 0  0.7999999999999998 -0.6000000000000001 0  1 -0.6000000000000001 0  1.2 -0.6000000000000001 0  1.4 -0.6000000000000001 0  1.6 -0.6000000000000001 0  1.8 -0.6000000000000001 0  2 -0.6000000000000001 0  -2 -0.3999999999999999 0  -1.8 -0.3999999999999999 0  -1.6 -0.3999999999999999 0  -1.4 -0.3999999999999999 0  -1.2 -0.3999999999999999 0  -1 -0.3999999999999999 0  -0.8 -0.3999999999999999 0  -0.6000000000000001 -0.3999999999999999 0  -0.3999999999999999 -0.3999999999999999 0  -0.2 -0.3999999999999999 0  0 -0.3999999999999999 0  0.2000000000000002 -0.3999999999999999 0  0.3999999999999999 -0.3999999999999999 0  0.6000000000000001 -0.3999999999999999 0  0.7999999999999998 -0.3999999999999999 0  1 -0.3999999999999999 0  1.2 -0.3999999999999999 0  1.4 -0.3999999999999999 0  1.6 -0.3999999999999999 0  1.8 -0.3999999999999999 0  2 -0.3999999999999999 0  -2 -0.2 0  -1.8 -0.2 0  -1.6 -0.2 0  -1.4 -0.2 0  -1.2 -0.2 0  -1 -0.2 0  -0.8 -0.2 0  -0.6000000000000001 -0.2 0  -0.3999999999999999 -0.2 0  -0.2 -0.2 0  0 -0.2 0  0.2000000000000002 -0.2 0  0.3999999999999999 -0.2 0  0.6000000000000001 -0.2 0  0.7999999999999998 -0.2 0  1 -0.2 0  1.2 -0.2 0  1.4 -0.2 0  1.6 -0.2 0  1.8 -0.2 0  2 -0.2 0  -2 0 0  -1.8 0 0  -1.6 0 0  -1.4 0 0  -1.2 0 0  -1 0 0  -0.8 0 0  -0.6000000000000001 0 0  -0.3999999999999999 0 0  -0.2 0 0  0 0 0  0.2000000000000002 0 0  0.3999999999999999 0 0  0.6000000000000001 0 0  0.7999999999999998 0 0  1 0 0  1.2 0 0  1.4 0 0  1.6 0 0  1.8 0 0  2 0 0  -2 0.2000000000000002 0  -1.8 0.2000000000000002 0  -1.6 0.2000000000000002 0  -1.4 0.2000000000000002 0  -1.2 0.2000000000000002 0  -1 0.2000000000000002 0  -0.8 0.2000000000000002 0  -0.6000000000000001 0.2000000000000002 0  -0.3999999999999999 0.2000000000000002 0  -0.2 0.2000000000000002 0  0 0.2000000000000002 0  0.2000000000000002 0.2000000000000002 0  0.3999999999999999 0.2000000000000002 0  0.6000000000000001 0.2000000000000002 0  0.7999999999999998 0.2000000000000002 0  1 0.2000000000000002 0  1.2 0.2000000000000002 0  1.4 0.2000000000000002 0  1.6 0.2000000000000002 0  1.8 0.2000000000000002 0  2 0.2000000000000002 0  -2 0.3999999999999999 0  -1.8 0.3999999999999999 0  -1.6 0.3999999999999999 0  -1.4 0.3999999999999999 0  -1.2 0.3999999999999999 0  -1 0.3999999999999999 0  -0.8 0.3999999999999999 0  -0.6000000000000001 0.3999999999999999 0  -0.3999999999999999 0.3999999999999999 0  -0.2 0.3999999999999999 0  0 0.3999999999999999 0  0.2000000000000002 0.3999999999999999 0  0.3999999999999999 0.3999999999999999 0  0.6000000000000001 0.3999999999999999 0  0.7999999999999998 0.3999999999999999 0  1 0.3999999999999999 0  1.2 0.3999999999999999 0  1.4 0.3999999999999999 0  1.6 0.3999999999999999 0  1.8 0.3999999999999999 0  2 0.3999999999999999 0  -2 0.6000000000000001 0  -1.8 0.6000000000000001 0  -1.6 0.6000000000000001 0  -1.4 0.6000000000000001 0  -1.2 0.6000000000000001 0  -1 0.6000000000000001 0  -0.8 0.6000000000000001 0  -0.6000000000000001 0.6000000000000001 0  -0.3999999999999999 0.6000000000000001 0  -0.2 0.6000000000000001 0  0 0.6000000000000001 0  0.2000000000000002 0.6000000000000001 0  0.3999999999999999 0.6000000000000001 0  0.6000000000000001 0.6000000000000001 0  0.7999999999999998 0.6000000000000001 0  1 0.6000000000000001 0  1.2 0.6000000000000001 0  1.4 0.6000000000000001 0  1.6 0.6000000000000001 0  1.8 0.6000000000000001 0  2 0.6000000000000001 0  -2 0.7999999999999998 0  -1.8 0.7999999999999998 0  -1.6 0.7999999999999998 0  -1.4 0.7999999999999998 0  -1.2 0.7999999999999998 0  -1 0.7999999999999998 0  -0.8 0.7999999999999998 0  -0.6000000000000001 0.7999999999999998 0  -0.3999999999999999 0.7999999999999998 0  -0.2 0.7999999999999998 0  0 0.7999999999999998 0  0.2000000000000002 0.7999999999999998 0  0.3999999999999999 0.7999999999999998 0  0.6000000000000001 0.7999999999999998 0  0.7999999999999998 0.7999999999999998 0  1 0.7999999999999998 0  1.2 0.7999999999999998 0  1.4 0.7999999999999998 0  1.6 0.7999999999999998 0  1.8 0.7999999999999998 0  2 0.7999999999999998 0  -2 1 0  -1.8 1 0  -1.6 1 0  -1.4 1 0  -1.2 1 0  -1 1 0  -0.8 1 0  -0.6000000000000001 1 0  -0.3999999999999999 1 0  -0.2 1 0  0 1 0  0.2000000000000002 1 0  0.3999999999999999 1 0  0.6000000000000001 1 0  0.7999999999999998 1 0  1 1 0  1.2 1 0  1.4 1 0  1.6 1 0  1.8 1 0  2 1 0  -2 1.2 0  -1.8 1.2 0  -1.6 1.2 0  -1.4 1.2 0  -1.2 1.2 0  -1 1.2 0  -0.8 1.2 0  -0.6000000000000001 1.2 0  -0.3999999999999999 1.2 0  -0.2 1.2 0  0 1.2 0  0.2000000000000002 1.2 0  0.3999999999999999 1.2 0  0.6000000000000001 1.2 0  0.7999999999999998 1.2 0  1 1.2 0  1.2 1.2 0  1.4 1.2 0  1.6 1.2 0  1.8 1.2 0  2 1.2 0  -2 1.4 0  -1.8 1.4 0  -1.6 1.4 0  -1.4 1.4 0  -1.2 1.4 0  -1 1.4 0  -0.8 1.4 0  -0.6000000000000001 1.4 0  -0.3999999999999999 1.4 0  -0.2 1.4 0  0 1.4 0  0.2000000000000002 1.4 0  0.3999999999999999 1.4 0  0.6000000000000001 1.4 0  0.7999999999999998 1.4 0  1 1.4 0  1.2 1.4 0  1.4 1.4 0  1.6 1.4 0  1.8 1.4 0  2 1.4 0  -2 1.6 0  -1.8 1.6 0  -1.6 1.6 0  -1.4 1.6 0  -1.2 1.6 0  -1 1.6 0  -0.8 1.6 0  -0.6000000000000001 1.6 0  -0.3999999999999999 1.6 0  -0.2 1.6 0  0 1.6 0  0.2000000000000002 1.6 0  0.3999999999999999 1.6 0  0.6000000000000001 1.6 0  0.7999999999999998 1.6 0  1 1.6 0  1.2 1.6 0  1.4 1.6 0  1.6 1.6 0  1.8 1.6 0  2 1.6 0  -2 1.8 0  -1.8 1.8 0  -1.6 1.8 0  -1.4 1.8 0  -1.2 1.8 0  -1 1.8 0  -0.8 1.8 0  -0.6000000000000001 1.8 0  -0.3999999999999999 1.8 0  -0.2 1.8 0  0 1.8 0  0.2000000000000002 1.8 0  0.3999999999999999 1.8 0  0.6000000000000001 1.8 0  0.7999999999999998 1.8 0  1 1.8 0  1.2 1.8 0  1.4 1.8 0  1.6 1.8 0  1.8 1.8 0  2 1.8 0  -2 2 0  -1.8 2 0  -1.6 2 0  -1.4 2 0  -1.2 2 0  -1 2 0  -0.8 2 0  -0.6000000000000001 2 0  -0.3999999999999999 2 0  -0.2 2 0  0 2 0  0.2000000000000002 2 0  0.3999999999999999 2 0  0.6000000000000001 2 0  0.7999999999999998 2 0  1 2 0  1.2 2 0  1.4 2 0  1.6 2 0  1.8 2 0  2 2 0  </DataArray>
</Points>
<Cells>
[...]
<PointData  Scalars="f_8"> 
<DataArray  type="Float64"  Name="f_8"  format="ascii">3.8591445940779329e-01  3.8477039058500012e-01  3.8192263244230873e-01  3.7741970270011421e-01  3.7136157746237924e-01  3.6389294652643389e-01  3.5519695588296707e-01  3.4548892710670726e-01  3.3500984934271982e-01  3.2401961630748521e-01  3.1279008098487632e-01  3.0159805484483765e-01  2.9071840455822745e-01  2.8041740898935663e-01  2.7094654130284829e-01  2.6253684301160152e-01  2.5539406733197184e-01  2.4969480000055411e-01  2.4558383483792218e-01  2.4317321896860442e-01  2.4254364097003195e-01  3.8539113630954708e-01  3.8447713946067213e-01  3.8177861073506814e-01  3.7737631760589829e-01  3.7138855653516850e-01  3.6397040962653071e-01  3.5531090258654952e-01  3.4562867360205191e-01  3.3516657814240369e-01  3.2418555583646025e-01  3.1295802996783867e-01  3.0176107460332940e-01  2.9086955650805119e-01  2.8054943229234247e-01  2.7105135213165199e-01  2.6260468733621151e-01  2.5541205674804546e-01  2.4964437049281724e-01  2.4543632764645879e-01  2.4288217542735732e-01  2.4203132189342300e-01  3.8526310429255400e-01  3.8436624855246226e-01  3.8169950878509501e-01  3.7733285170853964e-01  3.7137924870202593e-01  3.6399123062425187e-01  3.5535665154299878e-01  3.4569365089732129e-01  3.3524490806180718e-01  3.2427134002358221e-01  3.1304542095613364e-01  3.0184431216005481e-01  2.9094298808876545e-01  2.8060753290256979e-01  2.7108876526151660e-01  2.6261632973642418e-01  2.5539337442180865e-01  2.4959192009285119e-01  2.4534902256032201e-01  2.4276384684288466e-01  2.4189582768268036e-01  3.8522034560687524e-01  3.8432671815278657e-01  3.8166863913106508e-01  3.7731407707182729e-01  3.7137406234130393e-01  3.6399951777124201e-01  3.5537706764780880e-01  3.4572396239270864e-01  3.3528227616071810e-01  3.2431255238298229e-01  3.1308708357888509e-01  3.0188301512740773e-01  2.9097545835010380e-01  2.8063078734504110e-01  2.7110027815731164e-01  2.6261422992453987e-01  2.5537668741080954e-01  2.4956086435277733e-01  2.4530534812132379e-01  2.4271114786496867e-01  2.4183962751763113e-01  3.8520711953919251e-01  3.8431450413633278e-01  3.8165935758340919e-01  3.7730918916694156e-01  3.7137442261300502e-01  3.6400534035317422e-01  3.5538796952234808e-01  3.4573905250214410e-01  3.3530026852498418e-01  3.2433188954268116e-01  3.1310606260780927e-01  3.0189991231580748e-01  2.9098865091198223e-01  2.8063887150506373e-01  2.7110218284471871e-01  2.6260932389920377e-01  2.5536487458938489e-01  2.4954265688293945e-01  2.4528189906640813e-01  2.4268421599038584e-01  2.4181143961246523e-01  3.8520507229847462e-01  3.8431281512927334e-01  3.8165871534498119e-01  3.7731013922042278e-01  3.7137729862410551e-01  3.6401022764395730e-01  3.5539469973134563e-01  3.4574722451333301e-01  3.3530928953204647e-01  3.2434103020415467e-01  3.1311452092162267e-01  3.0190688163390295e-01  2.9099338817165044e-01  2.8064076214316891e-01  2.7110079892713357e-01  2.6260447173848972e-01  2.5535662760779326e-01  2.4953136889430941e-01  2.4526819289014395e-01  2.4266894305976688e-01  2.4179560901696365e-01  3.8520680456723105e-01  3.8431466801428182e-01  3.8166091411836023e-01  3.7731285724589292e-01  3.7138062955989343e-01  3.6401416804147163e-01  3.5539914337299183e-01  3.4575196825627230e-01  3.3531404929101732e-01  3.2434546500087469e-01  3.1311826255942610e-01  3.0190956741750247e-01  2.9099469409137452e-01  2.8064043401571698e-01  2.7109867909690194e-01  2.6260051909397930e-01  2.5535092889029276e-01  2.4952413963926609e-01  2.4525976694141158e-01  2.4265975053436595e-01  2.4178614392777467e-01  3.8520928915857727e-01  3.8431718479424809e-01  3.8166351671814552e-01  3.7731557965823331e-01  3.7138347540486322e-01  3.6401710360995548e-01  3.5540209523186056e-01  3.4575482563220883e-01  3.3531667093293749e-01  3.2434768980095846e-01  3.1311992290709378e-01  3.0191050406733061e-01  2.9099477123379208e-01  2.8063955323539591e-01  2.7109679097815415e-01  2.6259763138080283e-01  2.5534711033227325e-01  2.4951951895793623e-01  2.4525452673745010e-01  2.4265411641610568e-01  2.4178036964629582e-01  3.8521144827864862e-01  3.8431934558679332e-01  3.8166567580761324e-01  3.7731772638104027e-01  3.7138558789967135e-01  3.6401914637160504e-01  3.5540401847833902e-01  3.4575656662215976e-01  3.3531815715613483e-01  3.2434884376937562e-01  3.1312066811611006e-01  3.0191077158488011e-01  2.9099450631408369e-01  2.8063872134367096e-01  2.7109538265191513e-01  2.6259566543775315e-01  2.5534463506139887e-01  2.4951661109164375e-01  2.4525128819066180e-01  2.4265066897989604e-01  2.4177684802124216e-01  3.8521308198454385e-01  3.8432097216762251e-01  3.8166727733758560e-01  3.7731928235363044e-01  3.7138707392291009e-01  3.6402053345960289e-01  3.5540527308619352e-01  3.4575765148602050e-01  3.3531903290929321e-01  3.2434947121882313e-01  3.1312101099055734e-01  3.0191079951109934e-01  2.9099419774768931e-01  2.8063806617492965e-01  2.7109438422678178e-01  2.6259434177724839e-01  2.5534301912536334e-01  2.4951475001109585e-01  2.4524924148039356e-01  2.4264850583228315e-01  2.4177464386534017e-01  3.8521436424682187e-01  3.8432224538830129e-01  3.8166852182551991e-01  3.7732047740954566e-01  3.7138819739244466e-01  3.6402156158738019e-01  3.5540618074289670e-01  3.4575841279690084e-01  3.3531962226548689e-01  3.2434986460738569e-01  3.1312118753992296e-01  3.0191074311954930e-01  2.9099389864603115e-01  2.8063752227235089e-01  2.7109360210085864e-01  2.6259333719427269e-01  2.5534181701332498e-01  2.4951338385173402e-01  2.4524775213490696e-01  2.4264693986331498e-01  2.4177305146134165e-01  3.8521561140683752e-01  3.8432348292047114e-01  3.8166973028295420e-01  3.7732163633336036e-01  3.7138928487132228e-01  3.6402255412322904e-01  3.5540705349106322e-01  3.4575914020558723e-01  3.3532017909233713e-01  3.2435022724661333e-01  3.1312133555536098e-01  3.0191066085121537e-01  2.9099357674271098e-01  2.8063695900155472e-01  2.7109280430033356e-01  2.6259232075491207e-01  2.5534060681962961e-01  2.4951201314986243e-01  2.4524626134603253e-01  2.4264537490724297e-01  2.4177146169778030e-01  3.8521716954154545e-01  3.8432503179464483e-01  3.8167125222171627e-01  3.7732311104611022e-01  3.7139068819032056e-01  3.6402385735959636e-01  3.5540822354066237e-01  3.4576014045109060e-01  3.3532097105859465e-01  3.2435077288365266e-01  3.1312159995466676e-01  3.0191061515191048e-01  2.9099320095827819e-01  2.8063624449618846e-01  2.7109175566653199e-01  2.6259095688863787e-01  2.5533896105298326e-01  2.4951013237907035e-01  2.4524420417860568e-01  2.4264320893911567e-01  2.4176926011085467e-01  3.8521930472672578e-01  3.8432716424138530e-01  3.8167337734736378e-01  3.7732521677961617e-01  3.7139275122850435e-01  3.6402584094648799e-01  3.5541007707696626e-01  3.4576180102879867e-01  3.3532236680724420e-01  3.2435182783075195e-01  3.1312223995733146e-01  3.0191077435734381e-01  2.9099282820020855e-01  2.8063530903250578e-01  2.7109025170817769e-01  2.6258890645832311e-01  2.5533641484054165e-01  2.4950716842241555e-01  2.4524092438650091e-01  2.4263973367088679e-01  2.4176572122004358e-01  3.8522197376377720e-01  3.8432985907851930e-01  3.8167614650777532e-01  3.7732808831731579e-01  3.7139572249647923e-01  3.6402887228650332e-01  3.5541309009794864e-01  3.4576468158555668e-01  3.3532497230068709e-01  3.2435399806250631e-01  3.1312381049616600e-01  3.0191159120621730e-01  2.9099276247836176e-01  2.8063427039419148e-01  2.7108819930009459e-01  2.6258585636959653e-01  2.5533244322598425e-01  2.4950240978825869e-01  2.4523556492058687e-01  2.4263399996605681e-01  2.4175986524518156e-01  3.8522430554716058e-01  3.8433230724446915e-01  3.8167892395736464e-01  3.7733135333065787e-01  3.7139955235748401e-01  3.6403324756690802e-01  3.5541789062159457e-01  3.4576969361212506e-01  3.3532990543741487e-01  3.2435850979280906e-01  3.1312753590544629e-01  3.0191417538083259e-01  2.9099389306594753e-01  2.8063370788311920e-01  2.7108580267574428e-01  2.6258160194238456e-01  2.5532643464340182e-01  2.4949487761799843e-01  2.4522685482719886e-01  2.4262454950052781e-01  2.4175017066497526e-01  3.8522348054494343e-01  3.8433185153421678e-01  3.8167950144801888e-01  3.7733347754935648e-01  3.7140352188991205e-01  3.6403911379940296e-01  3.5542545580547269e-01  3.4577853410581133e-01  3.3533941403022172e-01  3.2436795125166124e-01  3.1313611060558144e-01  3.0192108666094097e-01  2.9099841455711090e-01  2.8063524738277623e-01  2.7108395912379996e-01  2.6257621171320894e-01  2.5531760277912724e-01  2.4948298901296659e-01  2.4521256016804796e-01  2.4260872172068687e-01  2.4173383085911290e-01  3.8521222170013991e-01  3.8432166334821621e-01  3.8167225350747480e-01  3.7733056447611502e-01  3.7140573021261197e-01  3.6404659755439750e-01  3.5543778450189523e-01  3.4579478324748930e-01  3.3535827766287762e-01  3.2438786386934121e-01  3.1315537136209498e-01  3.0193798244661502e-01  2.9101134057552630e-01  2.8064282471784330e-01  2.7108514850278059e-01  2.6257042106149564e-01  2.5530478281229874e-01  2.4946370550331334e-01  2.4518802341902807e-01  2.4258074422874604e-01  2.4170467788196473e-01  3.8517212801740441e-01  3.8428497854262361e-01  3.8164425869948193e-01  3.7731454393560754e-01  3.7140306412641594e-01  3.6405709858646551e-01  3.5546006848939804e-01  3.4582660011402316e-01  3.3539678637407544e-01  3.2442985722347406e-01  3.1319746307201962e-01  3.0197676997740003e-01  2.9104355690171352e-01  2.8066549232481108e-01  2.7109574999778108e-01  2.6256710209086642e-01  2.5528660261562280e-01  2.4943094368234642e-01  2.4514252808028564e-01  2.4252624485150737e-01  2.4164684132450559e-01  3.8504737494359781e-01  3.8417775735690213e-01  3.8156854974020626e-01  3.7727396527780038e-01  3.7139611112965237e-01  3.6407979872792112e-01  3.5550730244663814e-01  3.4589274686577531e-01  3.3547603331536668e-01  3.2451634837257187e-01  3.1328537062658091e-01  3.0206033000337529e-01  2.9111708964635469e-01  2.8072342241090126e-01  2.7113264890654543e-01  2.6257779763039918e-01  2.5526644683028599e-01  2.4937642155269366e-01  2.4505256221918328e-01  2.4240487711201114e-01  2.4150858247441345e-01  3.8453019574410552e-01  3.8388713368593136e-01  3.8142520565018084e-01  3.7723024038842007e-01  3.7142230017140454e-01  3.6415637348819041e-01  3.5562048292114778e-01  3.4603198511038930e-01  3.3563258977256794e-01  3.2468248681781769e-01  3.1345389152788639e-01  3.0222426778533229e-01  2.9126945194505927e-01  2.8085686587095920e-01  2.7123897136623309e-01  2.6264707535632198e-01  2.5528554044130841e-01  2.4932638008498403e-01  2.4490410596077850e-01  2.4211051804951161e-01  2.4098883392009279e-01  </DataArray> 
</PointData> 
</Piece>
</UnstructuredGrid>
</VTKFile>