<?xml version="1.0"?>
<VTKFile type="UnstructuredGrid"  version="0.1"  >
<UnstructuredGrid>
<Piece  NumberOfPoints="441" NumberOfCells="800">
<Points>
<DataArray  type="Float64"  NumberOfComponents="3"  format="ascii">-2 -2 0  -1.8 -2 0  -1.6 -2 0  -1.4 -2 0  -1.2 -2 0  -1 -2 0  -0.8 -2 0  -0.6000000000000001 -2 0  -0.3999999999999999 -2 0  -0.2 -2 0  0 -2 0  0.2000000000000002 -2 0  0.3999999999999999 -2 0  0.6000000000000001 -2 0  0.7999999999999998 -2 0  1 -2 0  1.2 -2 0  1.4 -2 0  1.6 -2 0  1.8 -2 0  2 -2 0  -2 -1.8 0  -1.8 -1.8 0  -1.6 -1.8 0  -1.4 -1.8 0  -1.2 -1.8 0  -1 -1.8 0  -0.8 -1.8 0  -0.6000000000000001 -1.8 0  -0.3999999999999999 -1.8 0  -0.2 -1.8 0  0 -1.8 0  0.2000000000000002 -1.8 0  0.3999999999999999 -1.8 0  0.6000000000000001 -1.8 0  0.7999999999999998 -1.8 0  1 -1.8 0  1.2 -1.8 0  1.4 -1.8 0  1.6 -1.8 0  1.8 -1.8 0  2 -1.8 0  -2 -1.6 0  -1.8 -1.6 0  -1.6 -1.6 0  -1.4 -1.6 0  -1.2 -1.6 0  -1 -1.6 0  -0.8 -1.6 0  -0.6000000000000001 -1.6 0  -0.3999999999999999 -1.6 0  -0.2 -1.6 0  0 -1.6 0  0.2000000000000002 -1.6 0  0.3999999999999999 -1.6 0  0.6000000000000001 -1.6 0  0.7999999999999998 -1.6 0  1 -1.6 0  1.2 -1.6 0  1.4 -1.6 0  1.6 -1.6 0  1.8 -1.6 0  2 -1.6 0  -2 -1.4 0  -1.8 -1.4 0  -1.6 -1.4 0  -1.4 -1.4 0  -1.2 -1.4 0  -1 -1.4 0  -0.8 -1.4 0  -0.6000000000000001 -1.4 0  -0.3999999999999999 -1.4 0  -0.2 -1.4 0  0 -1.4 0  0.2000000000000002 -1.4 0  0.3999999999999999 -1.4 0  0.6000000000000001 -1.4 0  0.7999999999999998 -1.4 0  1 -1.4 0  1.2 -1.4 0  1.4 -1.4 0  1.6 -1.4 0  1.8 -1.4 0  2 -1.4 0  -2 -1.2 0  -1.8 -1.2 0  -1.6 -1.2 0  -1.4 -1.2 0  -1.2 -1.2 0  -1 -1.2 0  -0.8 -1.2 0  -0.6000000000000001 -1.2 0  -0.3999999999999999 -1.2 0  -0.2 -1.2 0  0 -1.2 0  0.2000000000000002 -1.2 0  0.3999999999999999 -1.2 0  0.6000000000000001 -1.2 0  0.7999999999999998 -1.2 0  1 -1.2 0  1.2 -1.2 0  1.4 -1.2 0  1.6 -1.2 0  1.8 -1.2 0  2 -1.2 0  -2 -1 0  -1.8 -1 0  -1.6 -1 0  -1.4 -1 0  -1.2 -1 0  -1 -1 0  -0.8 -1 0  -0.6000000000000001 -1 0  -0.3999999999999999 -1 0  -0.2 -1 0  0 -1 0  0.2000000000000002 -1 0  0.3999999999999999 -1 0  0.6000000000000001 -1 0  0.7999999999999998 -1 0  1 -1 0  1.2 -1 0  1.4 -1 0  1.6 -1 0  1.8 -1 0  2 -1 0  -2 -0.8 0  -1.8 -0.8 0  -1.6 -0.8 0  -1.4 -0.8 0  -1.2 -0.8 0  -1 -0.8 0  -0.8 -0.8 0  -0.6000000000000001 -0.8 0  -0.3999999999999999 -0.8 0  -0.2 -0.8 0  0 -0.8 0  0.2000000000000002 -0.8 0  0.3999999999999999 -0.8 0  0.6000000000000001 -0.8 0  0.7999999999999998 -0.8 0  1 -0.8 0  1.2 -0.8 0  1.4 -0.8 0  1.6 -0.8 0  1.8 -0.8 0  2 -0.8 0  -2 -0.6000000000000001 0  -1.8 -0.6000000000000001 0  -1.6 -0.6000000000000001 0  -1.4 -0.6000000000000001 0  -1.2 -0.6000000000000001 0  -1 -0.6000000000000001 0  -0.8 -0.6000000000000001 0  -0.6000000000000001 -0.6000000000000001 0  -0.3999999999999999 -0.6000000000000001 0  -0.2 -0.6000000000000001 0  0 -0.6000000000000001 0  0.2000000000000002 -0.6000000000000001 0  0.3999999999999999 -0.6000000000000001 0  0.6000000000000001 -0.6000000000000001 0  0.7999999999999998 -0.6000000000000001 0  1 -0.6000000000000001 0  1.2 -0.6000000000000001 0  1.4 -0.6000000000000001 0  1.6 -0.6000000000000001 0  1.8 -0.6000000000000001 0  2 -0.6000000000000001 0  -2 -0.3999999999999999 0  -1.8 -0.3999999999999999 0  -1.6 -0.3999999999999999 0  -1.4 -0.3999999999999999 0  -1.2 -0.3999999999999999 0  -1 -0.3999999999999999 0  -0.8 -0.3999999999999999 0  -0.6000000000000001 -0.3999999999999999 0  -0.3999999999999999 -0.3999999999999999 0  -0.2 -0.3999999999999999 0  0 -0.3999999999999999 0  0.2000000000000002 -0.3999999999999999 0  0.3999999999999999 -0.3999999999999999 0  0.6000000000000001 -0.3999999999999999 0  0.7999999999999998 -0.3999999999999999 0  1 -0.3999999999999999 0  1.2 -0.3999999999999999 0  1.4 -0.3999999999999999 0  1.6 -0.3999999999999999 0  1.8 -0.3999999999999999 0  2 -0.3999999999999999 0  -2 -0.2 0  -1.8 -0.2 0  -1.6 -0.2 0  -1.4 -0.2 0  -1.2 -0.2 0  -1 -0.2 0  -0.8 -0.2 0  -0.6000000000000001 -0.2 0  -0.3999999999999999 -0.2 0  -0.2 -0.2 0  0 -0.2 0  0.2000000000000002 -0.2 0  0.3999999999999999 -0.2 0  0.6000000000000001 -0.2 0  0.7999999999999998 -0.2 0  1 -0.2 0  1.2 -0.2 0  1.4 -0.2 0  1.6 -0.2 0  1.8 -0.2 0  2 -0.2 0  -2 0 0  -1.8 0 0  -1.6 0 0  -1.4 0 0  -1.2 0 0  -1 0 0  -0.8 0 0  -0.6000000000000001 0 0  -0.3999999999999999 0 0  -0.2 0 0  0 0 0  0.2000000000000002 0 0  0.3999999999999999 0 0  0.6000000000000001 0 0  0.7999999999999998 0 0  1 0 0  1.2 0 0  1.4 0 0  1.6 0 0  1.8 0 0  2 0 0  -2 0.2000000000000002 0  -1.8 0.2000000000000002 0  -1.6 0.2000000000000002 0  -1.4 0.2000000000000002 0  -1.2 0.2000000000000002 0  -1 0.2000000000000002 0  -0.8 0.2000000000000002 0  -0.6000000000000001 0.2000000000000002 0  -0.3999999999999999 0.2000000000000002 0  -0.2 0.2000000000000002 0  0 0.2000000000000002 0  0.2000000000000002 0.2000000000000002 0  0.3999999999999999 0.2000000000000002 0  0.6000000000000001 0.2000000000000002 0  0.7999999999999998 0.2000000000000002 0  1 0.2000000000000002 0  1.2 0.2000000000000002 0  1.4 0.2000000000000002 0  1.6 0.2000000000000002 0  1.8 0.2000000000000002 0  2 0.2000000000000002 0  -2 0.3999999999999999 0  -1.8 0.3999999999999999 0  -1.6 0.3999999999999999 0  -1.4 0.3999999999999999 0  -1.2 0.3999999999999999 0  -1 0.3999999999999999 0  -0.8 0.3999999999999999 0  -0.6000000000000001 0.3999999999999999 0  -0.3999999999999999 0.3999999999999999 0  -0.2 0.3999999999999999 0  0 0.3999999999999999 0  0.2000000000000002 0.3999999999999999 0  0.3999999999999999 0.3999999999999999 0  0.6000000000000001 0.3999999999999999 0  0.7999999999999998 0.3999999999999999 0  1 0.3999999999999999 0  1.2 0.3999999999999999 0  1.4 0.3999999999999999 0  1.6 0.3999999999999999 0  1.8 0.3999999999999999 0  2 0.3999999999999999 0  -2 0.6000000000000001 0  -1.8 0.6000000000000001 0  -1.6 0.6000000000000001 0  -1.4 0.6000000000000001 0  -1.2 0.6000000000000001 0  -1 0.6000000000000001 0  -0.8 0.6000000000000001 0  -0.6000000000000001 0.6000000000000001 0  -0.3999999999999999 0.6000000000000001 0  -0.2 0.6000000000000001 0  0 0.6000000000000001 0  0.2000000000000002 0.6000000000000001 0  0.3999999999999999 0.6000000000000001 0  0.6000000000000001 0.6000000000000001 0  0.7999999999999998 0.6000000000000001 0  1 0.6000000000000001 0  1.2 0.6000000000000001 0  1.4 0.6000000000000001 0  1.6 0.6000000000000001 0  1.8 0.6000000000000001 0  2 0.6000000000000001 0  -2 0.7999999999999998 0  -1.8 0.7999999999999998 0  -1.6 0.7999999999999998 0  -1.4 0.7999999999999998 0  -1.2 0.7999999999999998 0  -1 0.7999999999999998 0  -0.8 0.7999999999999998 0  -0.6000000000000001 0.7999999999999998 0  -0.3999999999999999 0.7999999999999998 0  -0.2 0.7999999999999998 0  0 0.7999999999999998 0  0.2000000000000002 0.7999999999999998 0  0.3999999999999999 0.7999999999999998 0  0.6000000000000001 0.7999999999999998 0  0.7999999999999998 0.7999999999999998 0  1 0.7999999999999998 0  1.2 0.7999999999999998 0  1.4 0.7999999999999998 0  1.6 0.7999999999999998 0  1.8 0.7999999999999998 0  2 0.7999999999999998 0  -2 1 0  -1.8 1 0  -1.6 1 0  -1.4 1 0  -1.2 1 0  -1 1 0  -0.8 1 0  -0.6000000000000001 1 0  -0.3999999999999999 1 0  -0.2 1 0  0 1 0  0.2000000000000002 1 0  0.3999999999999999 1 0  0.6000000000000001 1 0  0.7999999999999998 1 0  1 1 0  1.2 1 0  1.4 1 0  1.6 1 0  1.8 1 0  2 1 0  -2 1.2 0  -1.8 1.2 0  -1.6 1.2 0  -1.4 1.2 0  -1.2 1.2 0  -1 1.2 0  -0.8 1.2 0  -0.6000000000000001 1.2 0  -0.3999999999999999 1.2 0  -0.2 1.2 0  0 1.2 0  0.2000000000000002 1.2 0  0.3999999999999999 1.2 0  0.6000000000000001 1.2 0  0.7999999999999998 1.2 0  1 1.2 0  1.2 1.2 0  1.4 1.2 0  1.6 1.2 0  1.8 1.2 0  2 1.2 0  -2 1.4 0  -1.8 1.4 0  -1.6 1.4 0  -1.4 1.4 0  -1.2 1.4 0  -1 1.4 0  -0.8 1.4 0  -0.6000000000000001 1.4 0  -0.3999999999999999 1.4 0  -0.2 1.4 0  0 1.4 0  0.2000000000000002 1.4 0  0.3999999999999999 1.4 0  0.6000000000000001 1.4 0  0.7999999999999998 1.4 0  1 1.4 0  1.2 1.4 0  1.4 1.4 0  1.6 1.4 0  1.8 1.4 0  2 1.4 0  -2 1.6 0  -1.8 1.6 0  -1.6 1.6 0  -1.4 1.6 0  -1.2 1.6 0  -1 1.6 0  -0.8 1.6 0  -0.6000000000000001 1.6 0  -0.3999999999999999 1.6 0  -0.2 1.6 0  0 1.6 0  0.2000000000000002 1.6 0  0.3999999999999999 1.6 0  0.6000000000000001 1.6 0  0.7999999999999998 1.6 0  1 1.6 0  1.2 1.6 0  1.4 1.6 0  1.6 1.6 0  1.8 1.6 0  2 1.6 0  -2 1.8 0  -1.8 1.8 0  -1.6 1.8 0  -1.4 1.8 0  -1.2 1.8 0  -1 1.8 0  -0.8 1.8 0  -0.6000000000000001 1.8 0  -0.3999999999999999 1.8 0  -0.2 1.8 0  0 1.8 0  0.2000000000000002 1.8 0  0.3999999999999999 1.8 0  0.6000000000000001 1.8 0  0.7999999999999998 1.8 0  1 1.8 0  1.2 1.8 0  1.4 1.8 0  1.6 1.8 0  1.8 1.8 0  2 1.8 0  -2 2 0  -1.8 2 0  -1.6 2 0  -1.4 2 0  -1.2 2 0  -1 2 0  -0.8 2 0  -0.6000000000000001 2 0  -0.3999999999999999 2 0  -0.2 2 0  0 2 0  0.2000000000000002 2 0  0.3999999999999999 2 0  0.6000000000000001 2 0  0.7999999999999998 2 0  1 2 0  1.2 2 0  1.4 2 0  1.6 2 0  1.8 2 0  2 2 0  </DataArray>
</Points>
<Cells>
[...]
<PointData  Scalars="f_8"> 
<DataArray  type="Float64"  Name="f_8"  format="ascii">8.0818247352421002e-01  7.9462959380747233e-01  7.6161985118134634e-01  7.1149915738077474e-01  6.4788226025881512e-01  5.7515625184582375e-01  4.9793803460076730e-01  4.2057078568536921e-01  3.4672998488422574e-01  2.7918023087144755e-01  2.1969069158697752e-01  1.6908840775055653e-01  1.2741031067680583e-01  9.4108417078999015e-02  6.8266606479794975e-02  4.8798038178441083e-02  3.4605474823449181e-02  2.4699074413256788e-02  1.8275423291319159e-02  1.4766960653560561e-02  1.3873081306033781e-02  8.0305217252479433e-01  7.9230887669484329e-01  7.6118940130050416e-01  7.1229195314940252e-01  6.4938198221706200e-01  5.7695441571627615e-01  4.9972100252657692e-01  4.2211749107590513e-01  3.4790891337350316e-01  2.7994043111981676e-01  2.2004623001314935e-01  1.6909853963452687e-01  1.2715875484453804e-01  9.3684827179966845e-02  6.7752154217847929e-02  4.8255502433286711e-02  3.4072761468172924e-02  2.4183838100205819e-02  1.7747332797744451e-02  1.4142788835983435e-02  1.2987482125975804e-02  8.0238451236530917e-01  7.9182439486487177e-01  7.6101471168866364e-01  7.1240865617291071e-01  6.4970941083953060e-01  5.7739512033525175e-01  5.0018518732230532e-01  4.2253530018825181e-01  3.4823510614836445e-01  2.8015392802331329e-01  2.2014626147146668e-01  1.6909890638610403e-01  1.2708154939938768e-01  9.3554688843090594e-02  6.7591737831737331e-02  4.8082428153142315e-02  3.3897995831087963e-02  2.4011341061974410e-02  1.7574994542702397e-02  1.3965320208936505e-02  1.2803280704080149e-02  8.0231670537245536e-01  7.9177550426554077e-01  7.6100451637190525e-01  7.1243906254802469e-01  6.4977078240692454e-01  5.7747306320585101e-01  5.0026535001430961e-01  4.2260614852500078e-01  3.4828912816320939e-01  2.8018772865328956e-01  2.2015994032146136e-01  1.6909505360621799e-01  1.2706413672180969e-01  9.3528063167225173e-02  6.7559846242816149e-02  4.8048329269382420e-02  3.3863657595702770e-02  2.3977697819484656e-02  1.7542232300955793e-02  1.3933353176884315e-02  1.2772308368849529e-02  8.0231422165091870e-01  7.9177512329877964e-01  7.6100796583337615e-01  7.1244631009346948e-01  6.4978061505510898e-01  5.7748382182831859e-01  5.0027546293419090e-01  4.2261443136422266e-01  3.4829489666690733e-01  2.8019078112195289e-01  2.2016046072511397e-01  1.6909347835463578e-01  1.2706101886137122e-01  9.3523957499170474e-02  6.7555228450956378e-02  4.8043553107854388e-02  3.3858947659926877e-02  2.3973171489133450e-02  1.7537941856905742e-02  1.3929335560961528e-02  1.2768623699012010e-02  8.0231469381916731e-01  7.9177575497931552e-01  7.6100886800605383e-01  7.1244744661146675e-01  6.4978185900424457e-01  5.7748502107264810e-01  5.0027648572181560e-01  4.2261518978234303e-01  3.4829535271426365e-01  2.8019094116390175e-01  2.2016036354445387e-01  1.6909318106154431e-01  1.2706058381595331e-01  9.3523442232764514e-02  6.7554679480179194e-02  4.8043003646162444e-02  3.3858418605529933e-02  2.3972674672403764e-02  1.7537484268623161e-02  1.3928923087443690e-02  1.2768262878074888e-02  8.0231481252219050e-01  7.9177587755378387e-01  7.6100900016728534e-01  7.1244758339492098e-01  6.4978198973765278e-01  5.7748513445739680e-01  5.0027657312287688e-01  4.2261524668155254e-01  3.4829537877858985e-01  2.8019093944768181e-01  2.2016033928476900e-01  1.6909314042599233e-01  1.2706053284840035e-01  9.3523386130230354e-02  6.7554622235935113e-02  4.8042948019356671e-02  3.3858366328539349e-02  2.3972626780434287e-02  1.7537441427885735e-02  1.3928885810347217e-02  1.2768231557637727e-02  8.0231482930928044e-01  7.9177589330844500e-01  7.6100901516059305e-01  7.1244759721196749e-01  6.4978200166558575e-01  5.7748514383732452e-01  5.0027657955683746e-01  4.2261525010200646e-01  3.4829537941969946e-01  2.8019093776089343e-01  2.2016033583492531e-01  1.6909313579465260e-01  1.2706052756072561e-01  9.3523380612224455e-02  6.7554616801076023e-02  4.8042942878257090e-02  3.3858361612287807e-02  2.3972622567459363e-02  1.7537437765380377e-02  1.3928882724535022e-02  1.2768229052444409e-02  8.0231483118191127e-01  7.9177589496172252e-01  7.6100901661192655e-01  7.1244759843950678e-01  6.4978200263522767e-01  5.7748514452471988e-01  5.0027657995872732e-01  4.2261525023813606e-01  3.4829537932845672e-01  2.8019093749188273e-01  2.2016033544107738e-01  1.6909313532563586e-01  1.2706052705857887e-01  9.3523380109398493e-02  6.7554616320530003e-02  4.8042942434931096e-02  3.3858361215158145e-02  2.3972622221453375e-02  1.7537437472654890e-02  1.3928882484968593e-02  1.2768228863582200e-02  8.0231483136234538e-01  7.9177589511356861e-01  7.6100901673702537e-01  7.1244759853773010e-01  6.4978200270615694e-01  5.7748514456887823e-01  5.0027657997809438e-01  4.2261525023606888e-01  3.4829537930925231e-01  2.8019093746020596e-01  2.2016033540142491e-01  1.6909313528193995e-01  1.2706052701399098e-01  9.3523380066242348e-02  6.7554616280380869e-02  4.8042942398763423e-02  3.3858361183504451e-02  2.3972622194532379e-02  1.7537437450449347e-02  1.3928882467259337e-02  1.2768228849964921e-02  8.0231483137748616e-01  7.9177589512555113e-01  7.6100901674607002e-01  7.1244759854399919e-01  6.4978200270984499e-01  5.7748514457026656e-01  5.0027657997755637e-01  4.2261525023404017e-01  3.4829537930618470e-01  2.8019093745652141e-01  2.2016033539748098e-01  1.6909313527801109e-01  1.2706052701026621e-01  9.3523380062834949e-02  6.7554616277345159e-02  4.8042942396112925e-02  3.3858361181227536e-02  2.3972622192603078e-02  1.7537437448833640e-02  1.3928882465918951e-02  1.2768228848861893e-02  8.0231483137187720e-01  7.9177589511784630e-01  7.6100901673647825e-01  7.1244759853303374e-01  6.4978200269827635e-01  5.7748514455899846e-01  5.0027657996746622e-01  4.2261525022582824e-01  3.4829537930027021e-01  2.8019093745300239e-01  2.2016033539615676e-01  1.6909313527845160e-01  1.2706052701190568e-01  9.3523380065067940e-02  6.7554616279607446e-02  4.8042942397936730e-02  3.3858361182268468e-02  2.3972622192642339e-02  1.7537437447764846e-02  1.3928882463733486e-02  1.2768228845650988e-02  8.0231483127929182e-01  7.9177589500410483e-01  7.6100901660645204e-01  7.1244759839543825e-01  6.4978200256416763e-01  5.7748514443956067e-01  5.0027657987182594e-01  4.2261525015949741e-01  3.4829537926451160e-01  2.8019093744510332e-01  2.2016033541037666e-01  1.6909313530731307e-01  1.2706052704750700e-01  9.3523380100171291e-02  6.7554616308361889e-02  4.8042942416197679e-02  3.3858361187558472e-02  2.3972622183856603e-02  1.7537437424764095e-02  1.3928882426998541e-02  1.2768228796202419e-02  8.0231483008382976e-01  7.9177589358699885e-01  7.6100901506132612e-01  7.1244759685613157e-01  6.4978200117515228e-01  5.7748514332403633e-01  5.0027657910783829e-01  4.2261524976933690e-01  3.4829537921743470e-01  2.8019093766989828e-01  2.2016033581286601e-01  1.6909313578812385e-01  1.2706052751666075e-01  9.3523380486610019e-02  6.7554616563975392e-02  4.8042942515007431e-02  3.3858361121376378e-02  2.3972621956050724e-02  1.7537437043886613e-02  1.3928881902132931e-02  1.2768228135986466e-02  8.0231481557704931e-01  7.9177587709987884e-01  7.6100899810362099e-01  7.1244758122744267e-01  6.4978198850417079e-01  5.7748513470144103e-01  5.0027657490995747e-01  4.2261524967767927e-01  3.4829538238125196e-01  2.8019094293852365e-01  2.2016034197081558e-01  1.6909314174576018e-01  1.2706053243235266e-01  9.3523383816445066e-02  6.7554618049224927e-02  4.8042942125203963e-02  3.3858358973179445e-02  2.3972618227132689e-02  1.7537431899256224e-02  1.3928875449403431e-02  1.2768220425109611e-02  8.0231465306713334e-01  7.9177570157145294e-01  7.6100883063849212e-01  7.1244744270152049e-01  6.4978189388340812e-01  5.7748509009669291e-01  5.0027657754530663e-01  4.2261528993091357e-01  3.4829544678694385e-01  2.8019101720332340e-01  2.2016041337738784e-01  1.6909320065749836e-01  1.2706057287890629e-01  9.3523403314692291e-02  6.7554616898854170e-02  4.8042922431326303e-02  3.3858323616896065e-02  2.3972569957461554e-02  1.7537372681550957e-02  1.3928806187842389e-02  1.2768141149725517e-02  8.0231301701457225e-01  7.9177404161615117e-01  7.6100740175590476e-01  7.1244644556141234e-01  6.4978142433074526e-01  5.7748513371483623e-01  5.0027703445099037e-01  4.2261601235763663e-01  3.4829627616898368e-01  2.8019181300604662e-01  2.2016107062963688e-01  1.6909365644298494e-01  1.2706080398185898e-01  9.3523418032991329e-02  6.7554444032016173e-02  4.8042599933405136e-02  3.3857888683510973e-02  2.3972051667204616e-02  1.7536787930887247e-02  1.3928159545658531e-02  1.2767428870587086e-02  8.0229873393408424e-01  7.9176064453733619e-01  7.6099751760165601e-01  7.1244153442724911e-01  6.4978162035871168e-01  5.7748954331612468e-01  5.0028419173463323e-01  4.2262430984085209e-01  3.4830428593751511e-01  2.8019847507917300e-01  2.2016575984815479e-01  1.6909615621034305e-01  1.2706122085682164e-01  9.3522069341451020e-02  6.7551744225524013e-02  4.8038963007250322e-02  3.3853656016749362e-02  2.3967449159160499e-02  1.7531914390928285e-02  1.3923008987861077e-02  1.2761945935171416e-02  8.0219345655115470e-01  7.9167148629315898e-01  7.6094654028427811e-01  7.1243474308015975e-01  6.4981311295973698e-01  5.7754702487705101e-01  5.0035359971186211e-01  4.2269298402662431e-01  3.4836273622577385e-01  2.8024100471503222e-01  2.2019025839108594e-01  1.6910337635957901e-01  1.2705382020366152e-01  9.3503639998900073e-02  6.7525980500903138e-02  4.8009044509963426e-02  3.3821866238958671e-02  2.3935020067436918e-02  1.7499092337581852e-02  1.3889369530067293e-02  1.2726999144914411e-02  8.0147787398465109e-01  7.9115183379149956e-01  7.6073901842234415e-01  7.1251937535389365e-01  6.5011030571239814e-01  5.7796079282806978e-01  5.0079539001119600e-01  4.2309380966947335e-01  3.4867775637988624e-01  2.8044899784182997e-01  2.2028978098511981e-01  1.6910714988460238e-01  1.2698267461665691e-01  9.3381027373567002e-02  6.7373671367464000e-02  4.7844218341063095e-02  3.3655504626684034e-02  2.3771394012297706e-02  1.7336291427772901e-02  1.3721377959155855e-02  1.2548996858147473e-02  7.9633126149376121e-01  7.8880223615326228e-01  7.6029534481248628e-01  7.1331663343743157e-01  6.5162443699321915e-01  5.7977460282397086e-01  5.0258894439872359e-01  4.2464282277857757e-01  3.4985014583072416e-01  2.8119513786511502e-01  2.2062616581944647e-01  1.6909585453715154e-01  1.2671006274084023e-01  9.2938848503122978e-02  6.6844501262368711e-02  4.7291663948107993e-02  3.3118126683529613e-02  2.3258070015337664e-02  1.6819661793017915e-02  1.3124737509378483e-02  1.1719831828071101e-02  </DataArray> 
</PointData> 
</Piece>
</UnstructuredGrid>
</VTKFile>