<?xml version="1.0"?>
<VTKFile type="UnstructuredGrid"  version="0.1"  >
<UnstructuredGrid>
<Piece  NumberOfPoints="441" NumberOfCells="800">
<Points>
<DataArray  type="Float64"  NumberOfComponents="3"  format="ascii">-2 -2 0  -1.8 -2 0  -1.6 -2 0  -1.4 -2 0  -1.2 -2 0  -1 -2 0  -0.8 -2 0  -0.6000000000000001 -2 0  -0.3999999999999999 -2 0  -0.2 -2 0  0 -2 0  0.2000000000000002 -2 0  0.3999999999999999 -2 0  0.6000000000000001 -2 0  0.7999999999999998 -2 0  1 -2 0  1.2 -2 0  1.4 -2 0  1.6 -2 0  1.8 -2 0  2 -2 0  -2 -1.8 0  -1.8 -1.8 0  -1.6 -1.8 0  -1.4 -1.8 0  -1.2 -1.8 0  -1 -1.8 0  -0.8 -1.8 0  -0.6000000000000001 -1.8 0  -0.3999999999999999 -1.8 0  -0.2 -1.8 0  0 -1.8 0  0.2000000000000002 -1.8 0  0.3999999999999999 -1.8 0  0.6000000000000001 -1.8 0  0.7999999999999998 -1.8 0  1 -1.8 0  1.2 -1.8 0  1.4 -1.8 0  1.6 -1.8 0  1.8 -1.8 0  2 -1.8 0  -2 -1.6 0  -1.8 -1.6 0  -1.6 -1.6 0  -1.4 -1.6 0  -1.2 -1.6 0  -1 -1.6 0  -0.8 -1.6 0  -0.6000000000000001 -1.6 0  -0.3999999999999999 -1.6 0  -0.2 -1.6 0  0 -1.6 0  0.2000000000000002 -1.6 0  0.3999999999999999 -1.6 0  0.6000000000000001 -1.6 0  0.7999999999999998 -1.6 0  1 -1.6 0  1.2 -1.6 0  1.4 -1.6 0  1.6 -1.6 0  1.8 -1.6 0  2 -1.6 0  -2 -1.4 0  -1.8 -1.4 0  -1.6 -1.4 0  -1.4 -1.4 0  -1.2 -1.4 0  -1 -1.4 0  -0.8 -1.4 0  -0.6000000000000001 -1.4 0  -0.3999999999999999 -1.4 0  -0.2 -1.4 0  0 -1.4 0  0.2000000000000002 -1.4 0  0.3999999999999999 -1.4 0  0.6000000000000001 -1.4 0  0.7999999999999998 -1.4 0  1 -1.4 0  1.2 -1.4 0  1.4 -1.4 0  1.6 -1.4 0  1.8 -1.4 0  2 -1.4 0  -2 -1.2 0  -1.8 -1.2 0  -1.6 -1.2 0  -1.4 -1.2 0  -1.2 -1.2 0  -1 -1.2 0  -0.8 -1.2 0  -0.6000000000000001 -1.2 0  -0.3999999999999999 -1.2 0  -0.2 -1.2 0  0 -1.2 0  0.2000000000000002 -1.2 0  0.3999999999999999 -1.2 0  0.6000000000000001 -1.2 0  0.7999999999999998 -1.2 0  1 -1.2 0  1.2 -1.2 0  1.4 -1.2 0  1.6 -1.2 0  1.8 -1.2 0  2 -1.2 0  -2 -1 0  -1.8 -1 0  -1.6 -1 0  -1.4 -1 0  -1.2 -1 0  -1 -1 0  -0.8 -1 0  -0.6000000000000001 -1 0  -0.3999999999999999 -1 0  -0.2 -1 0  0 -1 0  0.2000000000000002 -1 0  0.3999999999999999 -1 0  0.6000000000000001 -1 0  0.7999999999999998 -1 0  1 -1 0  1.2 -1 0  1.4 -1 0  1.6 -1 0  1.8 -1 0  2 -1 0  -2 -0.8 0  -1.8 -0.8 0  -1.6 -0.8 0  -1.4 -0.8 0  -1.2 -0.8 0  -1 -0.8 0  -0.8 -0.8 0  -0.6000000000000001 -0.8 0  -0.3999999999999999 -0.8 0  -0.2 -0.8 0  0 -0.8 0  0.2000000000000002 -0.8 0  0.3999999999999999 -0.8 0  0.6000000000000001 -0.8 0  0.7999999999999998 -0.8 0  1 -0.8 0  1.2 -0.8 0  1.4 -0.8 0  1.6 -0.8 0  1.8 -0.8 0  2 -0.8 0  -2 -0.6000000000000001 0  -1.8 -0.6000000000000001 0  -1.6 -0.6000000000000001 0  -1.4 -0.6000000000000001 0  -1.2 -0.6000000000000001 0  -1 -0.6000000000000001 0  -0.8 -0.6000000000000001 0  -0.6000000000000001 -0.6000000000000001 0  -0.3999999999999999 -0.6000000000000001 0  -0.2 -0.6000000000000001 0  0 -0.6000000000000001 0  0.2000000000000002 -0.6000000000000001 0  0.3999999999999999 -0.6000000000000001 0  0.6000000000000001 -0.6000000000000001 0  0.7999999999999998 -0.6000000000000001 0  1 -0.6000000000000001 0  1.2 -0.6000000000000001 0  1.4 -0.6000000000000001 0  1.6 -0.6000000000000001 0  1.8 -0.6000000000000001 0  2 -0.6000000000000001 0  -2 -0.3999999999999999 0  -1.8 -0.3999999999999999 0  -1.6 -0.3999999999999999 0  -1.4 -0.3999999999999999 0  -1.2 -0.3999999999999999 0  -1 -0.3999999999999999 0  -0.8 -0.3999999999999999 0  -0.6000000000000001 -0.3999999999999999 0  -0.3999999999999999 -0.3999999999999999 0  -0.2 -0.3999999999999999 0  0 -0.3999999999999999 0  0.2000000000000002 -0.3999999999999999 0  0.3999999999999999 -0.3999999999999999 0  0.6000000000000001 -0.3999999999999999 0  0.7999999999999998 -0.3999999999999999 0  1 -0.3999999999999999 0  1.2 -0.3999999999999999 0  1.4 -0.3999999999999999 0  1.6 -0.3999999999999999 0  1.8 -0.3999999999999999 0  2 -0.3999999999999999 0  -2 -0.2 0  -1.8 -0.2 0  -1.6 -0.2 0  -1.4 -0.2 0  -1.2 -0.2 0  -1 -0.2 0  -0.8 -0.2 0  -0.6000000000000001 -0.2 0  -0.3999999999999999 -0.2 0  -0.2 -0.2 0  0 -0.2 0  0.2000000000000002 -0.2 0  0.3999999999999999 -0.2 0  0.6000000000000001 -0.2 0  0.7999999999999998 -0.2 0  1 -0.2 0  1.2 -0.2 0  1.4 -0.2 0  1.6 -0.2 0  1.8 -0.2 0  2 -0.2 0  -2 0 0  -1.8 0 0  -1.6 0 0  -1.4 0 0  -1.2 0 0  -1 0 0  -0.8 0 0  -0.6000000000000001 0 0  -0.3999999999999999 0 0  -0.2 0 0  0 0 0  0.2000000000000002 0 0  0.3999999999999999 0 0  0.6000000000000001 0 0  0.7999999999999998 0 0  1 0 0  1.2 0 0  1.4 0 0  1.6 0 0  1.8 0 0  2 0 0  -2 0.2000000000000002 0  -1.8 0.2000000000000002 0  -1.6 0.2000000000000002 0  -1.4 0.2000000000000002 0  -1.2 0.2000000000000002 0  -1 0.2000000000000002 0  -0.8 0.2000000000000002 0  -0.6000000000000001 0.2000000000000002 0  -0.3999999999999999 0.2000000000000002 0  -0.2 0.2000000000000002 0  0 0.2000000000000002 0  0.2000000000000002 0.2000000000000002 0  0.3999999999999999 0.2000000000000002 0  0.6000000000000001 0.2000000000000002 0  0.7999999999999998 0.2000000000000002 0  1 0.2000000000000002 0  1.2 0.2000000000000002 0  1.4 0.2000000000000002 0  1.6 0.2000000000000002 0  1.8 0.2000000000000002 0  2 0.2000000000000002 0  -2 0.3999999999999999 0  -1.8 0.3999999999999999 0  -1.6 0.3999999999999999 0  -1.4 0.3999999999999999 0  -1.2 0.3999999999999999 0  -1 0.3999999999999999 0  -0.8 0.3999999999999999 0  -0.6000000000000001 0.3999999999999999 0  -0.3999999999999999 0.3999999999999999 0  -0.2 0.3999999999999999 0  0 0.3999999999999999 0  0.2000000000000002 0.3999999999999999 0  0.3999999999999999 0.3999999999999999 0  0.6000000000000001 0.3999999999999999 0  0.7999999999999998 0.3999999999999999 0  1 0.3999999999999999 0  1.2 0.3999999999999999 0  1.4 0.3999999999999999 0  1.6 0.3999999999999999 0  1.8 0.3999999999999999 0  2 0.3999999999999999 0  -2 0.6000000000000001 0  -1.8 0.6000000000000001 0  -1.6 0.6000000000000001 0  -1.4 0.6000000000000001 0  -1.2 0.6000000000000001 0  -1 0.6000000000000001 0  -0.8 0.6000000000000001 0  -0.6000000000000001 0.6000000000000001 0  -0.3999999999999999 0.6000000000000001 0  -0.2 0.6000000000000001 0  0 0.6000000000000001 0  0.2000000000000002 0.6000000000000001 0  0.3999999999999999 0.6000000000000001 0  0.6000000000000001 0.6000000000000001 0  0.7999999999999998 0.6000000000000001 0  1 0.6000000000000001 0  1.2 0.6000000000000001 0  1.4 0.6000000000000001 0  1.6 0.6000000000000001 0  1.8 0.6000000000000001 0  2 0.6000000000000001 0  -2 0.7999999999999998 0  -1.8 0.7999999999999998 0  -1.6 0.7999999999999998 0  -1.4 0.7999999999999998 0  -1.2 0.7999999999999998 0  -1 0.7999999999999998 0  -0.8 0.7999999999999998 0  -0.6000000000000001 0.7999999999999998 0  -0.3999999999999999 0.7999999999999998 0  -0.2 0.7999999999999998 0  0 0.7999999999999998 0  0.2000000000000002 0.7999999999999998 0  0.3999999999999999 0.7999999999999998 0  0.6000000000000001 0.7999999999999998 0  0.7999999999999998 0.7999999999999998 0  1 0.7999999999999998 0  1.2 0.7999999999999998 0  1.4 0.7999999999999998 0  1.6 0.7999999999999998 0  1.8 0.7999999999999998 0  2 0.7999999999999998 0  -2 1 0  -1.8 1 0  -1.6 1 0  -1.4 1 0  -1.2 1 0  -1 1 0  -0.8 1 0  -0.6000000000000001 1 0  -0.3999999999999999 1 0  -0.2 1 0  0 1 0  0.2000000000000002 1 0  0.3999999999999999 1 0  0.6000000000000001 1 0  0.7999999999999998 1 0  1 1 0  1.2 1 0  1.4 1 0  1.6 1 0  1.8 1 0  2 1 0  -2 1.2 0  -1.8 1.2 0  -1.6 1.2 0  -1.4 1.2 0  -1.2 1.2 0  -1 1.2 0  -0.8 1.2 0  -0.6000000000000001 1.2 0  -0.3999999999999999 1.2 0  -0.2 1.2 0  0 1.2 0  0.2000000000000002 1.2 0  0.3999999999999999 1.2 0  0.6000000000000001 1.2 0  0.7999999999999998 1.2 0  1 1.2 0  1.2 1.2 0  1.4 1.2 0  1.6 1.2 0  1.8 1.2 0  2 1.2 0  -2 1.4 0  -1.8 1.4 0  -1.6 1.4 0  -1.4 1.4 0  -1.2 1.4 0  -1 1.4 0  -0.8 1.4 0  -0.6000000000000001 1.4 0  -0.3999999999999999 1.4 0  -0.2 1.4 0  0 1.4 0  0.2000000000000002 1.4 0  0.3999999999999999 1.4 0  0.6000000000000001 1.4 0  0.7999999999999998 1.4 0  1 1.4 0  1.2 1.4 0  1.4 1.4 0  1.6 1.4 0  1.8 1.4 0  2 1.4 0  -2 1.6 0  -1.8 1.6 0  -1.6 1.6 0  -1.4 1.6 0  -1.2 1.6 0  -1 1.6 0  -0.8 1.6 0  -0.6000000000000001 1.6 0  -0.3999999999999999 1.6 0  -0.2 1.6 0  0 1.6 0  0.2000000000000002 1.6 0  0.3999999999999999 1.6 0  0.6000000000000001 1.6 0  0.7999999999999998 1.6 0  1 1.6 0  1.2 1.6 0  1.4 1.6 0  1.6 1.6 0  1.8 1.6 0  2 1.6 0  -2 1.8 0  -1.8 1.8 0  -1.6 1.8 0  -1.4 1.8 0  -1.2 1.8 0  -1 1.8 0  -0.8 1.8 0  -0.6000000000000001 1.8 0  -0.3999999999999999 1.8 0  -0.2 1.8 0  0 1.8 0  0.2000000000000002 1.8 0  0.3999999999999999 1.8 0  0.6000000000000001 1.8 0  0.7999999999999998 1.8 0  1 1.8 0  1.2 1.8 0  1.4 1.8 0  1.6 1.8 0  1.8 1.8 0  2 1.8 0  -2 2 0  -1.8 2 0  -1.6 2 0  -1.4 2 0  -1.2 2 0  -1 2 0  -0.8 2 0  -0.6000000000000001 2 0  -0.3999999999999999 2 0  -0.2 2 0  0 2 0  0.2000000000000002 2 0  0.3999999999999999 2 0  0.6000000000000001 2 0  0.7999999999999998 2 0  1 2 0  1.2 2 0  1.4 2 0  1.6 2 0  1.8 2 0  2 2 0  </DataArray>
</Points>
<Cells>
[...]
<PointData  Scalars="f_8"> 
<DataArray  type="Float64"  Name="f_8"  format="ascii">3.7614771317749658e-02  3.7615923863622544e-02  3.7616404958389027e-02  3.7616655023934770e-02  3.7616804379799230e-02  3.7616900688983594e-02  3.7616965553433621e-02  3.7617010674392333e-02  3.7617043316828212e-02  3.7617068528337731e-02  3.7617090223360745e-02  3.7617111828782517e-02  3.7617136770971150e-02  3.7617168961956167e-02  3.7617213441871626e-02  3.7617277455337564e-02  3.7617372651106526e-02  3.7617520498558848e-02  3.7617768342662727e-02  3.7618245932465169e-02  3.7619394481334729e-02  3.7623123133046159e-02  3.7623389493883164e-02  3.7623646747040884e-02  3.7623829346389380e-02  3.7623953359378556e-02  3.7624037849565146e-02  3.7624096161944433e-02  3.7624137155173619e-02  3.7624166910575574e-02  3.7624189879533386e-02  3.7624209610308282e-02  3.7624229247370161e-02  3.7624251934556693e-02  3.7624281217679176e-02  3.7624321542135297e-02  3.7624378976997767e-02  3.7624462360915281e-02  3.7624585022858960e-02  3.7624766085665236e-02  3.7625021998738739e-02  3.7625288181795127e-02  3.7644771553610734e-02  3.7644801298722677e-02  3.7644898157577975e-02  3.7644994221885150e-02  3.7645071421496631e-02  3.7645128999380023e-02  3.7645170658910876e-02  3.7645200558185050e-02  3.7645222330072635e-02  3.7645239011344013e-02  3.7645253209588142e-02  3.7645267316641896e-02  3.7645283725048724e-02  3.7645305044778622e-02  3.7645334317871426e-02  3.7645375189256820e-02  3.7645431847050770e-02  3.7645508071016291e-02  3.7645603286307568e-02  3.7645699785396947e-02  3.7645730126768716e-02  3.7679339158414142e-02  3.7679285114071412e-02  3.7679289579790130e-02  3.7679316326557417e-02  3.7679346458083338e-02  3.7679372544231954e-02  3.7679392715503884e-02  3.7679407389921392e-02  3.7679417780196761e-02  3.7679425295970077e-02  3.7679431347351827e-02  3.7679437315951761e-02  3.7679444585877436e-02  3.7679454575538417e-02  3.7679468711496383e-02  3.7679488238144092e-02  3.7679513631586233e-02  3.7679543125637906e-02  3.7679569459338619e-02  3.7679573964738811e-02  3.7679520606943490e-02  3.7725843042458192e-02  3.7725747576119267e-02  3.7725697195326036e-02  3.7725674018684194e-02  3.7725664602572970e-02  3.7725661006134115e-02  3.7725659185058755e-02  3.7725657359232313e-02  3.7725654930858207e-02  3.7725651874277857e-02  3.7725648419884135e-02  3.7725644894810159e-02  3.7725641630015017e-02  3.7725638868253510e-02  3.7725636607567545e-02  3.7725634290241380e-02  3.7725630199800513e-02  3.7725620386251178e-02  3.7725597033174157e-02  3.7725546827843646e-02  3.7725451967882379e-02  3.7782949775926035e-02  3.7782828403258036e-02  3.7782743180666788e-02  3.7782684926707187e-02  3.7782644819141495e-02  3.7782616202812508e-02  3.7782594617971843e-02  3.7782577245067735e-02  3.7782562330424117e-02  3.7782548754959497e-02  3.7782535744722484e-02  3.7782522677292193e-02  3.7782508934545364e-02  3.7782493756101335e-02  3.7782476047700450e-02  3.7782454094707062e-02  3.7782425133741089e-02  3.7782384778609041e-02  3.7782326457864807e-02  3.7782241423100681e-02  3.7782120526034441e-02  3.7849068852360813e-02  3.7848929790877686e-02  3.7848821587935802e-02  3.7848739103119991e-02  3.7848676473488302e-02  3.7848628440910068e-02  3.7848590798416459e-02  3.7848560345770596e-02  3.7848534666367346e-02  3.7848511883262652e-02  3.7848490448516924e-02  3.7848468969791549e-02  3.7848446058691691e-02  3.7848420179518512e-02  3.7848389476955069e-02  3.7848351566682509e-02  3.7848303291794082e-02  3.7848240497361380e-02  3.7848157978700517e-02  3.7848049914523021e-02  3.7847911179036131e-02  3.7922411820932034e-02  3.7922261041595344e-02  3.7922138052924777e-02  3.7922039640425897e-02  3.7921961673440460e-02  3.7921899951442781e-02  3.7921850663049109e-02  3.7921810534469774e-02  3.7921776800034911e-02  3.7921747094271367e-02  3.7921719319837739e-02  3.7921691513553304e-02  3.7921661715222058e-02  3.7921627836659935e-02  3.7921587528202447e-02  3.7921538046972805e-02  3.7921476148388672e-02  3.7921398054194762e-02  3.7921299595661345e-02  3.7921176664949680e-02  3.7921026054145712e-02  3.8001044926100278e-02  3.8000887601825663e-02  3.8000756318456175e-02  3.8000648798096441e-02  3.8000561872360984e-02  3.8000492026523607e-02  3.8000435783663432e-02  3.8000389907270379e-02  3.8000351463867134e-02  3.8000317797388890e-02  3.8000286455429438e-02  3.8000255092575132e-02  3.8000221365074173e-02  3.8000182825594302e-02  3.8000136826740590e-02  3.8000080447333322e-02  3.8000010466263404e-02  3.7999923423568033e-02  3.7999815820212390e-02  3.7999684498541700e-02  3.7999527183271133e-02  3.8082941196732639e-02  3.8082782144680125e-02  3.8082648207388263e-02  3.8082537539385453e-02  3.8082447454618924e-02  3.8082374816420649e-02  3.8082316360117378e-02  3.8082268902625643e-02  3.8082229442630303e-02  3.8082195176603183e-02  3.8082163459079575e-02  3.8082131730843141e-02  3.8082097432847628e-02  3.8082057920176535e-02  3.8082010390323856e-02  3.8081951843570300e-02  3.8081879099015149e-02  3.8081788894572317e-02  3.8081678096107373e-02  3.8081544019344001e-02  3.8081384819084775e-02  3.8166032704331908e-02  3.8165876511139597e-02  3.8165745088031951e-02  3.8165636718812880e-02  3.8165548869663356e-02  3.8165478531443274e-02  3.8165422519307157e-02  3.8165377680499692e-02  3.8165341003932186e-02  3.8165309648523181e-02  3.8165280914416025e-02  3.8165252179651471e-02  3.8165220820927222e-02  3.8165184134360305e-02  3.8165139272216056e-02  3.8165083214376415e-02  3.8165012797337257e-02  3.8164924825050531e-02  3.8164816278610306e-02  3.8164684617959174e-02  3.8164528125499544e-02  3.8248262336397595e-02  3.8248113377794192e-02  3.8247989347113778e-02  3.8247888412810460e-02  3.8247807912768619e-02  3.8247744738900864e-02  3.8247695655688273e-02  3.8247657507560220e-02  3.8247627318234785e-02  3.8247602306591244e-02  3.8247579846976215e-02  3.8247557397317555e-02  3.8247532412796353e-02  3.8247502259449805e-02  3.8247464142186612e-02  3.8247415065299335e-02  3.8247351849397461e-02  3.8247271233299011e-02  3.8247170085777521e-02  3.8247045729571903e-02  3.8246896330158313e-02  3.8327634043050070e-02  3.8327496479686987e-02  3.8327384558148450e-02  3.8327296042812625e-02  3.8327227828999416e-02  3.8327176470701982e-02  3.8327138554870438e-02  3.8327110900368389e-02  3.8327090620552139e-02  3.8327075098895304e-02  3.8327061916415980e-02  3.8327048755595922e-02  3.8327033295025639e-02  3.8327013103829959e-02  3.8326985545077567e-02  3.8326947702900668e-02  3.8326896358936477e-02  3.8326828058170156e-02  3.8326739314818899e-02  3.8326626996882593e-02  3.8326488863442150e-02  3.8402260415925912e-02  3.8402138217365676e-02  3.8402043133584793e-02  3.8401972061743408e-02  3.8401921014683781e-02  3.8401885926375147e-02  3.8401863093890924e-02  3.8401849324805802e-02  3.8401841913218923e-02  3.8401838538058265e-02  3.8401837135552119e-02  3.8401835767684467e-02  3.8401832491851841e-02  3.8401825230060700e-02  3.8401811636140114e-02  3.8401788966699504e-02  3.8401753978841435e-02  3.8401702908751612e-02  3.8401631627954853e-02  3.8401536102427011e-02  3.8401413218726706e-02  3.8470406447731038e-02  3.8470303516969617e-02  3.8470230354168002e-02  3.8470182103737691e-02  3.8470153209485672e-02  3.8470138655583408e-02  3.8470134396512229e-02  3.8470137328205554e-02  3.8470145086791759e-02  3.8470155821990641e-02  3.8470167997114210e-02  3.8470180220790476e-02  3.8470191097021135e-02  3.8470199074501783e-02  3.8470202276155593e-02  3.8470198295716108e-02  3.8470183967472378e-02  3.8470155164022253e-02  3.8470106775253129e-02  3.8470033163494718e-02  3.8469929447693389e-02  3.8530528297344990e-02  3.8530448874288137e-02  3.8530403817085328e-02  3.8530384663369791e-02  3.8530383218100747e-02  3.8530393225653638e-02  3.8530410428622555e-02  3.8530432082386171e-02  3.8530456438648088e-02  3.8530482350088623e-02  3.8530508998983949e-02  3.8530535710276606e-02  3.8530561805047756e-02  3.8530586453073702e-02  3.8530608482946205e-02  3.8530626105206869e-02  3.8530636508754927e-02  3.8530635335303993e-02  3.8530616192582211e-02  3.8530570740861872e-02  3.8530490448624659e-02  3.8581305679127272e-02  3.8581255595437382e-02  3.8581247598411306e-02  3.8581265608494876e-02  3.8581297373580833e-02  3.8581335510166535e-02  3.8581376134851290e-02  3.8581417432338866e-02  3.8581458690675564e-02  3.8581499746848387e-02  3.8581540691083993e-02  3.8581581709849364e-02  3.8581622987250541e-02  3.8581664605633025e-02  3.8581706385749349e-02  3.8581747584738819e-02  3.8581786329272484e-02  3.8581818629419430e-02  3.8581836920274878e-02  3.8581828695539104e-02  3.8581777679300412e-02  3.8621665538892153e-02  3.8621656459743220e-02  3.8621700964362918e-02  3.8621767181625161e-02  3.8621838127451527e-02  3.8621906843101461e-02  3.8621971324883424e-02  3.8622031668797747e-02  3.8622088744949067e-02  3.8622143650870286e-02  3.8622197518203089e-02  3.8622251468544255e-02  3.8622306622930924e-02  3.8622364111045152e-02  3.8622425025784057e-02  3.8622490225907927e-02  3.8622559777829205e-02  3.8622631600047121e-02  3.8622698541290905e-02  3.8622743212055888e-02  3.8622733193372179e-02  3.8650790668462172e-02  3.8650856203610487e-02  3.8650982784112588e-02  3.8651111588231840e-02  3.8651226208759153e-02  3.8651325303834194e-02  3.8651411597033163e-02  3.8651488372192219e-02  3.8651558571279915e-02  3.8651624691271418e-02  3.8651688898816747e-02  3.8651753192699645e-02  3.8651819572485778e-02  3.8651890207582404e-02  3.8651967600905682e-02  3.8652054705135358e-02  3.8652154818852098e-02  3.8652270668791761e-02  3.8652400826187781e-02  3.8652528427438798e-02  3.8652593273595354e-02  3.8668089601115910e-02  3.8668353326217340e-02  3.8668615867770283e-02  3.8668819309808568e-02  3.8668975387220056e-02  3.8669099238345800e-02  3.8669201643855358e-02  3.8669289831522798e-02  3.8669368805412975e-02  3.8669442258555307e-02  3.8669513156153329e-02  3.8669584138171197e-02  3.8669657845602008e-02  3.8669737247457897e-02  3.8669826045902182e-02  3.8669929265306359e-02  3.8670054177828754e-02  3.8670211659661662e-02  3.8670417030886195e-02  3.8670682127055149e-02  3.8670946730588233e-02  3.8673025158444903e-02  3.8674011821945936e-02  3.8674459191138696e-02  3.8674719349985100e-02  3.8674897331906044e-02  3.8675031817446012e-02  3.8675140436341737e-02  3.8675232789718683e-02  3.8675314874906885e-02  3.8675390887037898e-02  3.8675464100219270e-02  3.8675537392438168e-02  3.8675613642038018e-02  3.8675696124655892e-02  3.8675789039642403e-02  3.8675898394308350e-02  3.8676033811779066e-02  3.8676212973611547e-02  3.8676474727502526e-02  3.8676924935900553e-02  3.8677920872571311e-02  </DataArray> 
</PointData> 
</Piece>
</UnstructuredGrid>
</VTKFile>