<?xml version="1.0"?>
<VTKFile type="UnstructuredGrid"  version="0.1"  >
<UnstructuredGrid>
<Piece  NumberOfPoints="441" NumberOfCells="800">
<Points>
<DataArray  type="Float64"  NumberOfComponents="3"  format="ascii">-2 -2 0  -1.8 -2 0  -1.6 -2 0  -1.4 -2 0  -1.2 -2 0  -1 -2 0  -0.8 -2 0  -0.6000000000000001 -2 0  -0.3999999999999999 -2 0  -0.2 -2 0  0 -2 0  0.2000000000000002 -2 0  0.3999999999999999 -2 0  0.6000000000000001 -2 0  0.7999999999999998 -2 0  1 -2 0  1.2 -2 0  1.4 -2 0  1.6 -2 0  1.8 -2 0  2 -2 0  -2 -1.8 0  -1.8 -1.8 0  -1.6 -1.8 0  -1.4 -1.8 0  -1.2 -1.8 0  -1 -1.8 0  -0.8 -1.8 0  -0.6000000000000001 -1.8 0  -0.3999999999999999 -1.8 0  -0.2 -1.8 0  0 -1.8 0  0.2000000000000002 -1.8 0  0.3999999999999999 -1.8 0  0.6000000000000001 -1.8 0  0.7999999999999998 -1.8 0  1 -1.8 0  1.2 -1.8 0  1.4 -1.8 0  1.6 -1.8 0  1.8 -1.8 0  2 -1.8 0  -2 -1.6 0  -1.8 -1.6 0  -1.6 -1.6 0  -1.4 -1.6 0  -1.2 -1.6 0  -1 -1.6 0  -0.8 -1.6 0  -0.6000000000000001 -1.6 0  -0.3999999999999999 -1.6 0  -0.2 -1.6 0  0 -1.6 0  0.2000000000000002 -1.6 0  0.3999999999999999 -1.6 0  0.6000000000000001 -1.6 0  0.7999999999999998 -1.6 0  1 -1.6 0  1.2 -1.6 0  1.4 -1.6 0  1.6 -1.6 0  1.8 -1.6 0  2 -1.6 0  -2 -1.4 0  -1.8 -1.4 0  -1.6 -1.4 0  -1.4 -1.4 0  -1.2 -1.4 0  -1 -1.4 0  -0.8 -1.4 0  -0.6000000000000001 -1.4 0  -0.3999999999999999 -1.4 0  -0.2 -1.4 0  0 -1.4 0  0.2000000000000002 -1.4 0  0.3999999999999999 -1.4 0  0.6000000000000001 -1.4 0  0.7999999999999998 -1.4 0  1 -1.4 0  1.2 -1.4 0  1.4 -1.4 0  1.6 -1.4 0  1.8 -1.4 0  2 -1.4 0  -2 -1.2 0  -1.8 -1.2 0  -1.6 -1.2 0  -1.4 -1.2 0  -1.2 -1.2 0  -1 -1.2 0  -0.8 -1.2 0  -0.6000000000000001 -1.2 0  -0.3999999999999999 -1.2 0  -0.2 -1.2 0  0 -1.2 0  0.2000000000000002 -1.2 0  0.3999999999999999 -1.2 0  0.6000000000000001 -1.2 0  0.7999999999999998 -1.2 0  1 -1.2 0  1.2 -1.2 0  1.4 -1.2 0  1.6 -1.2 0  1.8 -1.2 0  2 -1.2 0  -2 -1 0  -1.8 -1 0  -1.6 -1 0  -1.4 -1 0  -1.2 -1 0  -1 -1 0  -0.8 -1 0  -0.6000000000000001 -1 0  -0.3999999999999999 -1 0  -0.2 -1 0  0 -1 0  0.2000000000000002 -1 0  0.3999999999999999 -1 0  0.6000000000000001 -1 0  0.7999999999999998 -1 0  1 -1 0  1.2 -1 0  1.4 -1 0  1.6 -1 0  1.8 -1 0  2 -1 0  -2 -0.8 0  -1.8 -0.8 0  -1.6 -0.8 0  -1.4 -0.8 0  -1.2 -0.8 0  -1 -0.8 0  -0.8 -0.8 0  -0.6000000000000001 -0.8 0  -0.3999999999999999 -0.8 0  -0.2 -0.8 0  0 -0.8 0  0.2000000000000002 -0.8 0  0.3999999999999999 -0.8 0  0.6000000000000001 -0.8 0  0.7999999999999998 -0.8 0  1 -0.8 0  1.2 -0.8 0  1.4 -0.8 0  1.6 -0.8 0  1.8 -0.8 0  2 -0.8 0  -2 -0.6000000000000001 0  -1.8 -0.6000000000000001 0  -1.6 -0.6000000000000001 0  -1.4 -0.6000000000000001 0  -1.2 -0.6000000000000001 0  -1 -0.6000000000000001 0  -0.8 -0.6000000000000001 0  -0.6000000000000001 -0.6000000000000001 0  -0.3999999999999999 -0.6000000000000001 0  -0.2 -0.6000000000000001 0  0 -0.6000000000000001 0  0.2000000000000002 -0.6000000000000001 0  0.3999999999999999 -0.6000000000000001 0  0.6000000000000001 -0.6000000000000001 0  0.7999999999999998 -0.6000000000000001 0  1 -0.6000000000000001 0  1.2 -0.6000000000000001 0  1.4 -0.6000000000000001 0  1.6 -0.6000000000000001 0  1.8 -0.6000000000000001 0  2 -0.6000000000000001 0  -2 -0.3999999999999999 0  -1.8 -0.3999999999999999 0  -1.6 -0.3999999999999999 0  -1.4 -0.3999999999999999 0  -1.2 -0.3999999999999999 0  -1 -0.3999999999999999 0  -0.8 -0.3999999999999999 0  -0.6000000000000001 -0.3999999999999999 0  -0.3999999999999999 -0.3999999999999999 0  -0.2 -0.3999999999999999 0  0 -0.3999999999999999 0  0.2000000000000002 -0.3999999999999999 0  0.3999999999999999 -0.3999999999999999 0  0.6000000000000001 -0.3999999999999999 0  0.7999999999999998 -0.3999999999999999 0  1 -0.3999999999999999 0  1.2 -0.3999999999999999 0  1.4 -0.3999999999999999 0  1.6 -0.3999999999999999 0  1.8 -0.3999999999999999 0  2 -0.3999999999999999 0  -2 -0.2 0  -1.8 -0.2 0  -1.6 -0.2 0  -1.4 -0.2 0  -1.2 -0.2 0  -1 -0.2 0  -0.8 -0.2 0  -0.6000000000000001 -0.2 0  -0.3999999999999999 -0.2 0  -0.2 -0.2 0  0 -0.2 0  0.2000000000000002 -0.2 0  0.3999999999999999 -0.2 0  0.6000000000000001 -0.2 0  0.7999999999999998 -0.2 0  1 -0.2 0  1.2 -0.2 0  1.4 -0.2 0  1.6 -0.2 0  1.8 -0.2 0  2 -0.2 0  -2 0 0  -1.8 0 0  -1.6 0 0  -1.4 0 0  -1.2 0 0  -1 0 0  -0.8 0 0  -0.6000000000000001 0 0  -0.3999999999999999 0 0  -0.2 0 0  0 0 0  0.2000000000000002 0 0  0.3999999999999999 0 0  0.6000000000000001 0 0  0.7999999999999998 0 0  1 0 0  1.2 0 0  1.4 0 0  1.6 0 0  1.8 0 0  2 0 0  -2 0.2000000000000002 0  -1.8 0.2000000000000002 0  -1.6 0.2000000000000002 0  -1.4 0.2000000000000002 0  -1.2 0.2000000000000002 0  -1 0.2000000000000002 0  -0.8 0.2000000000000002 0  -0.6000000000000001 0.2000000000000002 0  -0.3999999999999999 0.2000000000000002 0  -0.2 0.2000000000000002 0  0 0.2000000000000002 0  0.2000000000000002 0.2000000000000002 0  0.3999999999999999 0.2000000000000002 0  0.6000000000000001 0.2000000000000002 0  0.7999999999999998 0.2000000000000002 0  1 0.2000000000000002 0  1.2 0.2000000000000002 0  1.4 0.2000000000000002 0  1.6 0.2000000000000002 0  1.8 0.2000000000000002 0  2 0.2000000000000002 0  -2 0.3999999999999999 0  -1.8 0.3999999999999999 0  -1.6 0.3999999999999999 0  -1.4 0.3999999999999999 0  -1.2 0.3999999999999999 0  -1 0.3999999999999999 0  -0.8 0.3999999999999999 0  -0.6000000000000001 0.3999999999999999 0  -0.3999999999999999 0.3999999999999999 0  -0.2 0.3999999999999999 0  0 0.3999999999999999 0  0.2000000000000002 0.3999999999999999 0  0.3999999999999999 0.3999999999999999 0  0.6000000000000001 0.3999999999999999 0  0.7999999999999998 0.3999999999999999 0  1 0.3999999999999999 0  1.2 0.3999999999999999 0  1.4 0.3999999999999999 0  1.6 0.3999999999999999 0  1.8 0.3999999999999999 0  2 0.3999999999999999 0  -2 0.6000000000000001 0  -1.8 0.6000000000000001 0  -1.6 0.6000000000000001 0  -1.4 0.6000000000000001 0  -1.2 0.6000000000000001 0  -1 0.6000000000000001 0  -0.8 0.6000000000000001 0  -0.6000000000000001 0.6000000000000001 0  -0.3999999999999999 0.6000000000000001 0  -0.2 0.6000000000000001 0  0 0.6000000000000001 0  0.2000000000000002 0.6000000000000001 0  0.3999999999999999 0.6000000000000001 0  0.6000000000000001 0.6000000000000001 0  0.7999999999999998 0.6000000000000001 0  1 0.6000000000000001 0  1.2 0.6000000000000001 0  1.4 0.6000000000000001 0  1.6 0.6000000000000001 0  1.8 0.6000000000000001 0  2 0.6000000000000001 0  -2 0.7999999999999998 0  -1.8 0.7999999999999998 0  -1.6 0.7999999999999998 0  -1.4 0.7999999999999998 0  -1.2 0.7999999999999998 0  -1 0.7999999999999998 0  -0.8 0.7999999999999998 0  -0.6000000000000001 0.7999999999999998 0  -0.3999999999999999 0.7999999999999998 0  -0.2 0.7999999999999998 0  0 0.7999999999999998 0  0.2000000000000002 0.7999999999999998 0  0.3999999999999999 0.7999999999999998 0  0.6000000000000001 0.7999999999999998 0  0.7999999999999998 0.7999999999999998 0  1 0.7999999999999998 0  1.2 0.7999999999999998 0  1.4 0.7999999999999998 0  1.6 0.7999999999999998 0  1.8 0.7999999999999998 0  2 0.7999999999999998 0  -2 1 0  -1.8 1 0  -1.6 1 0  -1.4 1 0  -1.2 1 0  -1 1 0  -0.8 1 0  -0.6000000000000001 1 0  -0.3999999999999999 1 0  -0.2 1 0  0 1 0  0.2000000000000002 1 0  0.3999999999999999 1 0  0.6000000000000001 1 0  0.7999999999999998 1 0  1 1 0  1.2 1 0  1.4 1 0  1.6 1 0  1.8 1 0  2 1 0  -2 1.2 0  -1.8 1.2 0  -1.6 1.2 0  -1.4 1.2 0  -1.2 1.2 0  -1 1.2 0  -0.8 1.2 0  -0.6000000000000001 1.2 0  -0.3999999999999999 1.2 0  -0.2 1.2 0  0 1.2 0  0.2000000000000002 1.2 0  0.3999999999999999 1.2 0  0.6000000000000001 1.2 0  0.7999999999999998 1.2 0  1 1.2 0  1.2 1.2 0  1.4 1.2 0  1.6 1.2 0  1.8 1.2 0  2 1.2 0  -2 1.4 0  -1.8 1.4 0  -1.6 1.4 0  -1.4 1.4 0  -1.2 1.4 0  -1 1.4 0  -0.8 1.4 0  -0.6000000000000001 1.4 0  -0.3999999999999999 1.4 0  -0.2 1.4 0  0 1.4 0  0.2000000000000002 1.4 0  0.3999999999999999 1.4 0  0.6000000000000001 1.4 0  0.7999999999999998 1.4 0  1 1.4 0  1.2 1.4 0  1.4 1.4 0  1.6 1.4 0  1.8 1.4 0  2 1.4 0  -2 1.6 0  -1.8 1.6 0  -1.6 1.6 0  -1.4 1.6 0  -1.2 1.6 0  -1 1.6 0  -0.8 1.6 0  -0.6000000000000001 1.6 0  -0.3999999999999999 1.6 0  -0.2 1.6 0  0 1.6 0  0.2000000000000002 1.6 0  0.3999999999999999 1.6 0  0.6000000000000001 1.6 0  0.7999999999999998 1.6 0  1 1.6 0  1.2 1.6 0  1.4 1.6 0  1.6 1.6 0  1.8 1.6 0  2 1.6 0  -2 1.8 0  -1.8 1.8 0  -1.6 1.8 0  -1.4 1.8 0  -1.2 1.8 0  -1 1.8 0  -0.8 1.8 0  -0.6000000000000001 1.8 0  -0.3999999999999999 1.8 0  -0.2 1.8 0  0 1.8 0  0.2000000000000002 1.8 0  0.3999999999999999 1.8 0  0.6000000000000001 1.8 0  0.7999999999999998 1.8 0  1 1.8 0  1.2 1.8 0  1.4 1.8 0  1.6 1.8 0  1.8 1.8 0  2 1.8 0  -2 2 0  -1.8 2 0  -1.6 2 0  -1.4 2 0  -1.2 2 0  -1 2 0  -0.8 2 0  -0.6000000000000001 2 0  -0.3999999999999999 2 0  -0.2 2 0  0 2 0  0.2000000000000002 2 0  0.3999999999999999 2 0  0.6000000000000001 2 0  0.7999999999999998 2 0  1 2 0  1.2 2 0  1.4 2 0  1.6 2 0  1.8 2 0  2 2 0  </DataArray>
</Points>
<Cells>
[...]
<PointData  Scalars="f_8"> 
<DataArray  type="Float64"  Name="f_8"  format="ascii">7.3912732957439234e-02  7.2919782986081691e-02  7.0485159569645503e-02  6.6743019792728037e-02  6.1908126930319628e-02  5.6250765279446578e-02  5.0069152470522078e-02  4.3662291895344686e-02  3.7306121528177812e-02  3.1235187556622891e-02  2.5631121316611976e-02  2.0618159388552677e-02  1.6265024811812079e-02  1.2591826159229600e-02  9.5802964885567179e-03  7.1856760890085794e-03  5.3487740006271049e-03  4.0071252843984547e-03  3.1045932581886928e-03  2.5991692051621487e-03  2.4690558264609031e-03  7.3520852406698783e-02  7.2733442653752631e-02  7.0438466040962266e-02  6.6790121380433748e-02  6.2014301907327395e-02  5.6388261798707907e-02  5.0215596464797153e-02  4.3800305391204615e-02  3.7423320568185543e-02  3.1324090358070898e-02  2.5688754765657247e-02  2.0645330188723707e-02  1.6265330493642819e-02  1.2570527866510438e-02  9.5431693129150487e-03  7.1379052222454234e-03  5.2938866605803936e-03  3.9458439661926798e-03  3.0333581207128177e-03  2.5078789650702957e-03  2.3372573615210593e-03  7.3474391752739468e-02  7.2702063521782462e-02  7.0434860064984964e-02  6.6815065359373899e-02  6.2062044171709969e-02  5.6449967671904293e-02  5.0281695164045556e-02  4.3862105200135428e-02  3.7474038695500769e-02  3.1359367117229565e-02  2.5706718101210037e-02  2.0646300548034176e-02  1.6251279564321659e-02  1.2544413560293018e-02  9.5082603786045584e-03  7.0971869729823398e-03  5.2496148467861027e-03  3.8993005677842307e-03  2.9848777441979770e-03  2.4572805931756809e-03  2.2849698455888788e-03  7.3486943956210943e-02  7.2716616227214967e-02  7.0454289089195488e-02  6.6840121149258552e-02  6.2091468920586916e-02  5.6481110646663502e-02  5.0311285858983555e-02  4.3886980428906520e-02  3.7491702533648225e-02  3.1368324284997737e-02  2.5706572268094627e-02  2.0637649265599446e-02  1.6235464288734836e-02  1.2523194851400733e-02  9.4834859863629339e-03  7.0705079355102667e-03  5.2222871398302758e-03  3.8720921247876335e-03  2.9580853747772891e-03  2.4308465704988751e-03  2.2586643343023146e-03  7.3504474857562910e-02  7.2734326643106986e-02  7.0472253850113908e-02  6.6858055266754715e-02  6.2108683179598854e-02  5.6496620868924624e-02  5.0324013472548362e-02  4.3895974462359121e-02  3.7496324357621569e-02  3.1368357250708120e-02  2.5702242204216696e-02  2.0629563288786106e-02  1.6224490791825811e-02  1.2510315041406393e-02  9.4696471706781950e-03  7.0565027483031660e-03  5.2086737666597570e-03  3.8591609961468425e-03  2.9458696686272953e-03  2.4191679881604639e-03  2.2472019201953547e-03  7.3515137107570461e-02  7.2744891615649634e-02  7.0482413307778768e-02  6.6867458214310671e-02  6.2116941974268772e-02  5.6503347082374859e-02  5.0328873162682683e-02  4.3898746050279408e-02  3.7496942363061059e-02  3.1366930152943284e-02  2.5699040250489111e-02  2.0624979669201654e-02  1.6218985258561195e-02  1.2504351691323867e-02  9.4636376504964453e-03  7.0507633133225847e-03  5.2034006132934104e-03  3.8544243178289411e-03  2.9416238756438803e-03  2.4152739296800542e-03  2.2434567301342664e-03  7.3519637974353652e-02  7.2749309845671767e-02  7.0486560844444351e-02  6.6871153367960415e-02  6.2120020518088452e-02  5.6505676768502516e-02  5.0330369113365463e-02  4.3899383142680257e-02  3.7496760865094937e-02  3.1366032334061794e-02  2.5697577894150024e-02  2.0623134595630387e-02  1.6216946474655561e-02  1.2502293258656344e-02  9.4617007985779069e-03  7.0490450204834538e-03  5.2019492913892261e-03  3.8532418300011575e-03  2.9406722177641354e-03  2.4144846447088000e-03  2.2427414289778089e-03  7.3521006782229600e-02  7.2750639183737226e-02  7.0487782271852900e-02  6.6872205218059491e-02  6.2120853091119373e-02  5.6506257086362276e-02  5.0330684478668154e-02  4.3899442672367027e-02  3.7496594398434752e-02  3.1365686605778285e-02  2.5697110464014645e-02  2.0622606540208362e-02  1.6216415111364721e-02  1.2501806112130070e-02  9.4612916670251696e-03  7.0487324742618289e-03  5.2017373956957927e-03  3.8531224730853162e-03  2.9406282357219275e-03  2.4144929821996917e-03  2.2427758146075687e-03  7.3521284390180699e-02  7.2750902721371274e-02  7.0488015268970097e-02  6.6872393961415172e-02  6.2120988073821173e-02  5.6506334054192531e-02  5.0330704886599173e-02  4.3899413421719075e-02  3.7496526835757750e-02  3.1365594908100980e-02  2.5697009671610031e-02  2.0622510583448328e-02  1.6216335182188985e-02  1.2501749648413905e-02  9.4612620723366885e-03  7.0487295275685966e-03  5.2017581611031741e-03  3.8531624339302496e-03  2.9406823660389067e-03  2.4145565263122533e-03  2.2428446508207097e-03  7.3521310009847907e-02  7.2750924565202366e-02  7.0488031108980762e-02  6.6872402319114829e-02  6.2120988445696579e-02  5.6506327005007559e-02  5.0330691983263121e-02  4.3899397005820684e-02  3.7496509664236496e-02  3.1365579721851430e-02  2.5696998772098106e-02  2.0622505500152603e-02  1.6216336496131238e-02  1.2501757002823206e-02  9.4612743596171785e-03  7.0487452035521737e-03  5.2017756128434978e-03  3.8531803211872807e-03  2.9406998685353957e-03  2.4145734535691798e-03  2.2428614014842838e-03  7.3521306058975555e-02  7.2750919947782558e-02  7.0488025905144538e-02  6.6872396728337960e-02  6.2120982784087071e-02  5.6506321678966617e-02  5.0330687440027944e-02  4.3899393666945050e-02  3.7496507853280694e-02  3.1365579600850652e-02  2.5697000301377407e-02  2.0622508432194677e-02  1.6216340407134700e-02  1.2501761357126160e-02  9.4612785947126646e-03  7.0487488191413117e-03  5.2017782473624445e-03  3.8531818031778491e-03  2.9407002365350200e-03  2.4145729447256027e-03  2.2428604139810341e-03  7.3521298873544125e-02  7.2750913073981099e-02  7.0488019656837916e-02  6.6872391351037258e-02  6.2120978454019558e-02  5.6506318502185938e-02  5.0330685450396699e-02  4.3899392824042510e-02  3.7496508042951078e-02  3.1365580641600020e-02  2.5697001958908321e-02  2.0622510442284893e-02  1.6216342504495100e-02  1.2501763305684272e-02  9.4612802137145520e-03  7.0487499999200409e-03  5.2017789574696884e-03  3.8531820772822831e-03  2.9407001563133577e-03  2.4145726122039779e-03  2.2428599239536448e-03  7.3521281922035289e-02  7.2750897597146896e-02  7.0488005066725729e-02  6.6872377060353302e-02  6.2120964038662241e-02  5.6506303802483213e-02  5.0330670598519915e-02  4.3899378201328276e-02  3.7496494185506477e-02  3.1365568122102491e-02  2.5696991274602433e-02  2.0622501933610805e-02  1.6216336317587676e-02  1.2501759398683695e-02  9.4612783952277013e-03  7.0487499809793975e-03  5.2017803972917989e-03  3.8531846077070183e-03  2.9407033783896970e-03  2.4145760686371822e-03  2.2428630605277780e-03  7.3521345378427125e-02  7.2750961080389018e-02  7.0488057915563243e-02  6.6872410224929554e-02  6.2120971139824961e-02  5.6506281782810121e-02  5.0330619889534252e-02  4.3899302402742028e-02  3.7496399332856596e-02  3.1365461688684183e-02  2.5696881092193723e-02  2.0622395213095775e-02  1.6216238907449835e-02  1.2501675350601343e-02  9.4612098321296863e-03  7.0486972036716018e-03  5.2017421344406848e-03  3.8531583145425931e-03  2.9406855168730532e-03  2.4145623444365039e-03  2.2428486355816368e-03  7.3522093393036433e-02  7.2751687255396297e-02  7.0488705108442976e-02  6.6872929492145392e-02  6.2121325952169348e-02  5.6506451088128851e-02  5.0330599569071932e-02  4.3899104808665268e-02  3.7496050893492346e-02  3.1364998928579059e-02  2.5696345714116536e-02  2.0621829033762914e-02  1.6215679393189197e-02  1.2501152292946908e-02  9.4607434114069924e-03  7.0482974004611575e-03  5.2014092384590187e-03  3.8528841869479727e-03  2.9404552835221409e-03  2.4143562987937292e-03  2.2426442573677411e-03  7.3525519639716458e-02  7.2755013275553157e-02  7.0491746562358557e-02  6.6875520705499208e-02  6.2123330966685125e-02  5.6507775077737424e-02  5.0331198183578549e-02  4.3898988768563296e-02  3.7495284035774491e-02  3.1363689437198694e-02  2.5694631860048948e-02  2.0619861890974246e-02  1.6213605416220869e-02  1.2499098336823871e-02  9.4588059554584752e-03  7.0465367186310982e-03  5.1998483418329916e-03  3.8515117517601790e-03  2.9392315323485134e-03  2.4132208571163824e-03  2.2415252162516358e-03  7.3535489215651714e-02  7.2764758372137903e-02  7.0500906956793813e-02  6.6883724642697026e-02  6.2130211426934819e-02  5.6513007180069838e-02  5.0334545112533921e-02  4.3900341339973663e-02  3.7494682059766513e-02  3.1361319068151802e-02  2.5690799738073349e-02  2.0614952175579435e-02  1.6208028714182445e-02  1.2493241842091461e-02  9.4529923743296492e-03  7.0409966747252339e-03  5.1947079195547915e-03  3.8467943827789463e-03  2.9348718959783214e-03  2.4090877819090890e-03  2.2374503980496382e-03  7.3554809727193110e-02  7.2784003722756896e-02  7.0519953320814940e-02  6.6902123351615286e-02  6.2147196919062730e-02  5.6527632490741754e-02  5.0345876815599405e-02  4.3907649467621844e-02  3.7497577839644788e-02  3.1359815927709658e-02  2.5685295004509487e-02  2.0606144101278211e-02  1.6196793619676641e-02  1.2480498966452636e-02  9.4395807754772878e-03  7.0275815619458568e-03  5.1817256836450241e-03  3.8344383593452271e-03  2.9231155695891601e-03  2.3977385040502381e-03  2.2262235324112941e-03  7.3573577510410146e-02  7.2804663198086969e-02  7.0544879472016445e-02  6.6931584655291629e-02  6.2179629073115271e-02  5.6560307339153626e-02  5.0375662878399223e-02  4.3931685157735323e-02  3.7513757117718406e-02  3.1367045292122926e-02  2.5683527960218961e-02  2.0596234206659916e-02  1.6180227836993837e-02  1.2459078932751895e-02  9.4151130335397640e-03  7.0016232125400648e-03  5.1554146990832979e-03  3.8084225855249125e-03  2.8975835723633108e-03  2.3725471476956205e-03  2.2011031326235487e-03  7.3536085829487105e-02  7.2783075035092681e-02  7.0550428794831213e-02  6.6964306145607444e-02  6.2233450969890781e-02  5.6626338615930083e-02  5.0444448544804635e-02  4.3994761128542954e-02  3.7564634168183925e-02  3.1401685030375194e-02  2.5700375477299787e-02  2.0595898398469037e-02  1.6164924354965124e-02  1.2431958757677429e-02  9.3795890346140796e-03  6.9607830261013207e-03  5.1115813486464073e-03  3.7629081872259454e-03  2.8506928930797336e-03  2.3239489801629171e-03  2.1508335218542707e-03  7.3149435082315278e-02  7.2598953957219908e-02  7.0504969312683727e-02  6.7012956330895157e-02  6.2342173920039975e-02  5.6767541379878814e-02  5.0595502760919613e-02  4.4137765997865994e-02  3.7686575355991611e-02  3.1494493881576484e-02  2.5760651384733737e-02  2.0624244692833246e-02  1.6164970147265631e-02  1.2409198446653563e-02  9.3401736735333040e-03  6.9103533681431958e-03  5.0541520116215927e-03  3.6997024414788665e-03  2.7786832981202855e-03  2.2336557163419161e-03  2.0226121567691003e-03  </DataArray> 
</PointData> 
</Piece>
</UnstructuredGrid>
</VTKFile>