<?xml version="1.0"?>
<VTKFile type="UnstructuredGrid"  version="0.1"  >
<UnstructuredGrid>
<Piece  NumberOfPoints="441" NumberOfCells="800">
<Points>
<DataArray  type="Float64"  NumberOfComponents="3"  format="ascii">-2 -2 0  -1.8 -2 0  -1.6 -2 0  -1.4 -2 0  -1.2 -2 0  -1 -2 0  -0.8 -2 0  -0.6000000000000001 -2 0  -0.3999999999999999 -2 0  -0.2 -2 0  0 -2 0  0.2000000000000002 -2 0  0.3999999999999999 -2 0  0.6000000000000001 -2 0  0.7999999999999998 -2 0  1 -2 0  1.2 -2 0  1.4 -2 0  1.6 -2 0  1.8 -2 0  2 -2 0  -2 -1.8 0  -1.8 -1.8 0  -1.6 -1.8 0  -1.4 -1.8 0  -1.2 -1.8 0  -1 -1.8 0  -0.8 -1.8 0  -0.6000000000000001 -1.8 0  -0.3999999999999999 -1.8 0  -0.2 -1.8 0  0 -1.8 0  0.2000000000000002 -1.8 0  0.3999999999999999 -1.8 0  0.6000000000000001 -1.8 0  0.7999999999999998 -1.8 0  1 -1.8 0  1.2 -1.8 0  1.4 -1.8 0  1.6 -1.8 0  1.8 -1.8 0  2 -1.8 0  -2 -1.6 0  -1.8 -1.6 0  -1.6 -1.6 0  -1.4 -1.6 0  -1.2 -1.6 0  -1 -1.6 0  -0.8 -1.6 0  -0.6000000000000001 -1.6 0  -0.3999999999999999 -1.6 0  -0.2 -1.6 0  0 -1.6 0  0.2000000000000002 -1.6 0  0.3999999999999999 -1.6 0  0.6000000000000001 -1.6 0  0.7999999999999998 -1.6 0  1 -1.6 0  1.2 -1.6 0  1.4 -1.6 0  1.6 -1.6 0  1.8 -1.6 0  2 -1.6 0  -2 -1.4 0  -1.8 -1.4 0  -1.6 -1.4 0  -1.4 -1.4 0  -1.2 -1.4 0  -1 -1.4 0  -0.8 -1.4 0  -0.6000000000000001 -1.4 0  -0.3999999999999999 -1.4 0  -0.2 -1.4 0  0 -1.4 0  0.2000000000000002 -1.4 0  0.3999999999999999 -1.4 0  0.6000000000000001 -1.4 0  0.7999999999999998 -1.4 0  1 -1.4 0  1.2 -1.4 0  1.4 -1.4 0  1.6 -1.4 0  1.8 -1.4 0  2 -1.4 0  -2 -1.2 0  -1.8 -1.2 0  -1.6 -1.2 0  -1.4 -1.2 0  -1.2 -1.2 0  -1 -1.2 0  -0.8 -1.2 0  -0.6000000000000001 -1.2 0  -0.3999999999999999 -1.2 0  -0.2 -1.2 0  0 -1.2 0  0.2000000000000002 -1.2 0  0.3999999999999999 -1.2 0  0.6000000000000001 -1.2 0  0.7999999999999998 -1.2 0  1 -1.2 0  1.2 -1.2 0  1.4 -1.2 0  1.6 -1.2 0  1.8 -1.2 0  2 -1.2 0  -2 -1 0  -1.8 -1 0  -1.6 -1 0  -1.4 -1 0  -1.2 -1 0  -1 -1 0  -0.8 -1 0  -0.6000000000000001 -1 0  -0.3999999999999999 -1 0  -0.2 -1 0  0 -1 0  0.2000000000000002 -1 0  0.3999999999999999 -1 0  0.6000000000000001 -1 0  0.7999999999999998 -1 0  1 -1 0  1.2 -1 0  1.4 -1 0  1.6 -1 0  1.8 -1 0  2 -1 0  -2 -0.8 0  -1.8 -0.8 0  -1.6 -0.8 0  -1.4 -0.8 0  -1.2 -0.8 0  -1 -0.8 0  -0.8 -0.8 0  -0.6000000000000001 -0.8 0  -0.3999999999999999 -0.8 0  -0.2 -0.8 0  0 -0.8 0  0.2000000000000002 -0.8 0  0.3999999999999999 -0.8 0  0.6000000000000001 -0.8 0  0.7999999999999998 -0.8 0  1 -0.8 0  1.2 -0.8 0  1.4 -0.8 0  1.6 -0.8 0  1.8 -0.8 0  2 -0.8 0  -2 -0.6000000000000001 0  -1.8 -0.6000000000000001 0  -1.6 -0.6000000000000001 0  -1.4 -0.6000000000000001 0  -1.2 -0.6000000000000001 0  -1 -0.6000000000000001 0  -0.8 -0.6000000000000001 0  -0.6000000000000001 -0.6000000000000001 0  -0.3999999999999999 -0.6000000000000001 0  -0.2 -0.6000000000000001 0  0 -0.6000000000000001 0  0.2000000000000002 -0.6000000000000001 0  0.3999999999999999 -0.6000000000000001 0  0.6000000000000001 -0.6000000000000001 0  0.7999999999999998 -0.6000000000000001 0  1 -0.6000000000000001 0  1.2 -0.6000000000000001 0  1.4 -0.6000000000000001 0  1.6 -0.6000000000000001 0  1.8 -0.6000000000000001 0  2 -0.6000000000000001 0  -2 -0.3999999999999999 0  -1.8 -0.3999999999999999 0  -1.6 -0.3999999999999999 0  -1.4 -0.3999999999999999 0  -1.2 -0.3999999999999999 0  -1 -0.3999999999999999 0  -0.8 -0.3999999999999999 0  -0.6000000000000001 -0.3999999999999999 0  -0.3999999999999999 -0.3999999999999999 0  -0.2 -0.3999999999999999 0  0 -0.3999999999999999 0  0.2000000000000002 -0.3999999999999999 0  0.3999999999999999 -0.3999999999999999 0  0.6000000000000001 -0.3999999999999999 0  0.7999999999999998 -0.3999999999999999 0  1 -0.3999999999999999 0  1.2 -0.3999999999999999 0  1.4 -0.3999999999999999 0  1.6 -0.3999999999999999 0  1.8 -0.3999999999999999 0  2 -0.3999999999999999 0  -2 -0.2 0  -1.8 -0.2 0  -1.6 -0.2 0  -1.4 -0.2 0  -1.2 -0.2 0  -1 -0.2 0  -0.8 -0.2 0  -0.6000000000000001 -0.2 0  -0.3999999999999999 -0.2 0  -0.2 -0.2 0  0 -0.2 0  0.2000000000000002 -0.2 0  0.3999999999999999 -0.2 0  0.6000000000000001 -0.2 0  0.7999999999999998 -0.2 0  1 -0.2 0  1.2 -0.2 0  1.4 -0.2 0  1.6 -0.2 0  1.8 -0.2 0  2 -0.2 0  -2 0 0  -1.8 0 0  -1.6 0 0  -1.4 0 0  -1.2 0 0  -1 0 0  -0.8 0 0  -0.6000000000000001 0 0  -0.3999999999999999 0 0  -0.2 0 0  0 0 0  0.2000000000000002 0 0  0.3999999999999999 0 0  0.6000000000000001 0 0  0.7999999999999998 0 0  1 0 0  1.2 0 0  1.4 0 0  1.6 0 0  1.8 0 0  2 0 0  -2 0.2000000000000002 0  -1.8 0.2000000000000002 0  -1.6 0.2000000000000002 0  -1.4 0.2000000000000002 0  -1.2 0.2000000000000002 0  -1 0.2000000000000002 0  -0.8 0.2000000000000002 0  -0.6000000000000001 0.2000000000000002 0  -0.3999999999999999 0.2000000000000002 0  -0.2 0.2000000000000002 0  0 0.2000000000000002 0  0.2000000000000002 0.2000000000000002 0  0.3999999999999999 0.2000000000000002 0  0.6000000000000001 0.2000000000000002 0  0.7999999999999998 0.2000000000000002 0  1 0.2000000000000002 0  1.2 0.2000000000000002 0  1.4 0.2000000000000002 0  1.6 0.2000000000000002 0  1.8 0.2000000000000002 0  2 0.2000000000000002 0  -2 0.3999999999999999 0  -1.8 0.3999999999999999 0  -1.6 0.3999999999999999 0  -1.4 0.3999999999999999 0  -1.2 0.3999999999999999 0  -1 0.3999999999999999 0  -0.8 0.3999999999999999 0  -0.6000000000000001 0.3999999999999999 0  -0.3999999999999999 0.3999999999999999 0  -0.2 0.3999999999999999 0  0 0.3999999999999999 0  0.2000000000000002 0.3999999999999999 0  0.3999999999999999 0.3999999999999999 0  0.6000000000000001 0.3999999999999999 0  0.7999999999999998 0.3999999999999999 0  1 0.3999999999999999 0  1.2 0.3999999999999999 0  1.4 0.3999999999999999 0  1.6 0.3999999999999999 0  1.8 0.3999999999999999 0  2 0.3999999999999999 0  -2 0.6000000000000001 0  -1.8 0.6000000000000001 0  -1.6 0.6000000000000001 0  -1.4 0.6000000000000001 0  -1.2 0.6000000000000001 0  -1 0.6000000000000001 0  -0.8 0.6000000000000001 0  -0.6000000000000001 0.6000000000000001 0  -0.3999999999999999 0.6000000000000001 0  -0.2 0.6000000000000001 0  0 0.6000000000000001 0  0.2000000000000002 0.6000000000000001 0  0.3999999999999999 0.6000000000000001 0  0.6000000000000001 0.6000000000000001 0  0.7999999999999998 0.6000000000000001 0  1 0.6000000000000001 0  1.2 0.6000000000000001 0  1.4 0.6000000000000001 0  1.6 0.6000000000000001 0  1.8 0.6000000000000001 0  2 0.6000000000000001 0  -2 0.7999999999999998 0  -1.8 0.7999999999999998 0  -1.6 0.7999999999999998 0  -1.4 0.7999999999999998 0  -1.2 0.7999999999999998 0  -1 0.7999999999999998 0  -0.8 0.7999999999999998 0  -0.6000000000000001 0.7999999999999998 0  -0.3999999999999999 0.7999999999999998 0  -0.2 0.7999999999999998 0  0 0.7999999999999998 0  0.2000000000000002 0.7999999999999998 0  0.3999999999999999 0.7999999999999998 0  0.6000000000000001 0.7999999999999998 0  0.7999999999999998 0.7999999999999998 0  1 0.7999999999999998 0  1.2 0.7999999999999998 0  1.4 0.7999999999999998 0  1.6 0.7999999999999998 0  1.8 0.7999999999999998 0  2 0.7999999999999998 0  -2 1 0  -1.8 1 0  -1.6 1 0  -1.4 1 0  -1.2 1 0  -1 1 0  -0.8 1 0  -0.6000000000000001 1 0  -0.3999999999999999 1 0  -0.2 1 0  0 1 0  0.2000000000000002 1 0  0.3999999999999999 1 0  0.6000000000000001 1 0  0.7999999999999998 1 0  1 1 0  1.2 1 0  1.4 1 0  1.6 1 0  1.8 1 0  2 1 0  -2 1.2 0  -1.8 1.2 0  -1.6 1.2 0  -1.4 1.2 0  -1.2 1.2 0  -1 1.2 0  -0.8 1.2 0  -0.6000000000000001 1.2 0  -0.3999999999999999 1.2 0  -0.2 1.2 0  0 1.2 0  0.2000000000000002 1.2 0  0.3999999999999999 1.2 0  0.6000000000000001 1.2 0  0.7999999999999998 1.2 0  1 1.2 0  1.2 1.2 0  1.4 1.2 0  1.6 1.2 0  1.8 1.2 0  2 1.2 0  -2 1.4 0  -1.8 1.4 0  -1.6 1.4 0  -1.4 1.4 0  -1.2 1.4 0  -1 1.4 0  -0.8 1.4 0  -0.6000000000000001 1.4 0  -0.3999999999999999 1.4 0  -0.2 1.4 0  0 1.4 0  0.2000000000000002 1.4 0  0.3999999999999999 1.4 0  0.6000000000000001 1.4 0  0.7999999999999998 1.4 0  1 1.4 0  1.2 1.4 0  1.4 1.4 0  1.6 1.4 0  1.8 1.4 0  2 1.4 0  -2 1.6 0  -1.8 1.6 0  -1.6 1.6 0  -1.4 1.6 0  -1.2 1.6 0  -1 1.6 0  -0.8 1.6 0  -0.6000000000000001 1.6 0  -0.3999999999999999 1.6 0  -0.2 1.6 0  0 1.6 0  0.2000000000000002 1.6 0  0.3999999999999999 1.6 0  0.6000000000000001 1.6 0  0.7999999999999998 1.6 0  1 1.6 0  1.2 1.6 0  1.4 1.6 0  1.6 1.6 0  1.8 1.6 0  2 1.6 0  -2 1.8 0  -1.8 1.8 0  -1.6 1.8 0  -1.4 1.8 0  -1.2 1.8 0  -1 1.8 0  -0.8 1.8 0  -0.6000000000000001 1.8 0  -0.3999999999999999 1.8 0  -0.2 1.8 0  0 1.8 0  0.2000000000000002 1.8 0  0.3999999999999999 1.8 0  0.6000000000000001 1.8 0  0.7999999999999998 1.8 0  1 1.8 0  1.2 1.8 0  1.4 1.8 0  1.6 1.8 0  1.8 1.8 0  2 1.8 0  -2 2 0  -1.8 2 0  -1.6 2 0  -1.4 2 0  -1.2 2 0  -1 2 0  -0.8 2 0  -0.6000000000000001 2 0  -0.3999999999999999 2 0  -0.2 2 0  0 2 0  0.2000000000000002 2 0  0.3999999999999999 2 0  0.6000000000000001 2 0  0.7999999999999998 2 0  1 2 0  1.2 2 0  1.4 2 0  1.6 2 0  1.8 2 0  2 2 0  </DataArray>
</Points>
<Cells>
[...]
<PointData  Scalars="f_8"> 
<DataArray  type="Float64"  Name="f_8"  format="ascii">3.4851585176848089e-02  3.4858190938005990e-02  3.4860957343920473e-02  3.4862406901858163e-02  3.4863285651867054e-02  3.4863866030141168e-02  3.4864271068630791e-02  3.4864566978288006e-02  3.4864794467403294e-02  3.4864981471562591e-02  3.4865149385810354e-02  3.4865316785620187e-02  3.4865502240209380e-02  3.4865727120882962e-02  3.4866019303624846e-02  3.4866419355344166e-02  3.4866993150224457e-02  3.4867862903223731e-02  3.4869299115626556e-02  3.4872044265659291e-02  3.4878624403748573e-02  3.4899422845468986e-02  3.4900952441907183e-02  3.4902436506797870e-02  3.4903499313266667e-02  3.4904232471901060e-02  3.4904744616565536e-02  3.4905111500391953e-02  3.4905383069909972e-02  3.4905593272266076e-02  3.4905766647480685e-02  3.4905922513230291e-02  3.4906077847708092e-02  3.4906249622214280e-02  3.4906457130597118e-02  3.4906724862267278e-02  3.4907086671095072e-02  3.4907592358225020e-02  3.4908317544733655e-02  3.4909371153724028e-02  3.4910846944239987e-02  3.4912374864897025e-02  3.5023422792925599e-02  3.5023597061903534e-02  3.5024161947139844e-02  3.5024728232090623e-02  3.5025192030031807e-02  3.5025548487697601e-02  3.5025818178951132e-02  3.5026024176551311e-02  3.5026186457044257e-02  3.5026321514344691e-02  3.5026443336697397e-02  3.5026564651030184e-02  3.5026698185235537e-02  3.5026857932095048e-02  3.5027060401036821e-02  3.5027325618294088e-02  3.5027676806104850e-02  3.5028134954129167e-02  3.5028696242103315e-02  3.5029258890734091e-02  3.5029436502695008e-02  3.5221430968454558e-02  3.5221125154729631e-02  3.5221160015161380e-02  3.5221327831449628e-02  3.5221520035912120e-02  3.5221693614068871e-02  3.5221837289803409e-02  3.5221952791882512e-02  3.5222046319787259e-02  3.5222125137916699e-02  3.5222196469600411e-02  3.5222267351327968e-02  3.5222344831033751e-02  3.5222436171236722e-02  3.5222548720192058e-02  3.5222688842505699e-02  3.5222858582601858e-02  3.5223047243075595e-02  3.5223212777933777e-02  3.5223247953717153e-02  3.5222946231900525e-02  3.5487828502366488e-02  3.5487285075839689e-02  3.5487004590150209e-02  3.5486884459507352e-02  3.5486847405770343e-02  3.5486847563616752e-02  3.5486861289415507e-02  3.5486877823405247e-02  3.5486893107046481e-02  3.5486906303690301e-02  3.5486918004879270e-02  3.5486929335436117e-02  3.5486941439390560e-02  3.5486954971244704e-02  3.5486969217968858e-02  3.5486980335719592e-02  3.5486977914050345e-02  3.5486938837606605e-02  3.5486817949952981e-02  3.5486538731563204e-02  3.5485999069469608e-02  3.5814990714898604e-02  3.5814298324503425e-02  3.5813816699023830e-02  3.5813493125222258e-02  3.5813276859113681e-02  3.5813129485046169e-02  3.5813025084657273e-02  3.5812947065902191e-02  3.5812884884523985e-02  3.5812831586208869e-02  3.5812782162039307e-02  3.5812732453752993e-02  3.5812678325056371e-02  3.5812614837084290e-02  3.5812535165787258e-02  3.5812428975733085e-02  3.5812279980854053e-02  3.5812062669722478e-02  3.5811739095533889e-02  3.5811258931262052e-02  3.5810569649113284e-02  3.6193820637940181e-02  3.6193026141043222e-02  3.6192410973696736e-02  3.6191945612134867e-02  3.6191596332327013e-02  3.6191332815250284e-02  3.6191130707885724e-02  3.6190971374886118e-02  3.6190840628282872e-02  3.6190727338721439e-02  3.6190622238292489e-02  3.6190516937300361e-02  3.6190403065977025e-02  3.6190271418772062e-02  3.6190110978046711e-02  3.6189907725295567e-02  3.6189643256006786e-02  3.6189293497529307e-02  3.6188828420082274e-02  3.6188214522159819e-02  3.6187422346335818e-02  3.6614085883085241e-02  3.6613223300122677e-02  3.6612521243528227e-02  3.6611961266663252e-02  3.6611519642428342e-02  3.6611172211779112e-02  3.6610897014920152e-02  3.6610675144653014e-02  3.6610490581396093e-02  3.6610329579470739e-02  3.6610179915556255e-02  3.6610030126566981e-02  3.6609868763803545e-02  3.6609683648465514e-02  3.6609461112843897e-02  3.6609185251570475e-02  3.6608837305716138e-02  3.6608395484591619e-02  3.6607835789731577e-02  3.6607134602300959e-02  3.6606273488999003e-02  3.7064718440236524e-02  3.7063817266908244e-02  3.7063065290953337e-02  3.7062449478152855e-02  3.7061951691487065e-02  3.7061551807578398e-02  3.7061229916793614e-02  3.7060967483622607e-02  3.7060747705315672e-02  3.7060555365108938e-02  3.7060376409773693e-02  3.7060197395990403e-02  3.7060004887209612e-02  3.7059784851189138e-02  3.7059522107910269e-02  3.7059199908048020e-02  3.7058799784062235e-02  3.7058301900808943e-02  3.7057686200335477e-02  3.7056934580996181e-02  3.7056033995538973e-02  3.7534111628213886e-02  3.7533199380019533e-02  3.7532429672074631e-02  3.7531791995600527e-02  3.7531271056445541e-02  3.7530849007065478e-02  3.7530507291942412e-02  3.7530227844851508e-02  3.7529993658632486e-02  3.7529788872260869e-02  3.7529598538173614e-02  3.7529408205523022e-02  3.7529203421688251e-02  3.7528969234157439e-02  3.7528689774769058e-02  3.7528348028261778e-02  3.7527925920179436e-02  3.7527404886319671e-02  3.7526767067925480e-02  3.7525997153366610e-02  3.7525084605952844e-02  3.8010418469258525e-02  3.8009521405273188e-02  3.8008763540018316e-02  3.8008135153247878e-02  3.8007621902616452e-02  3.8007206781587768e-02  3.8006871831090402e-02  3.8006599323370971e-02  3.8006372381556706e-02  3.8006175132534972e-02  3.8005992531658116e-02  3.8005809988997136e-02  3.8005612904243286e-02  3.8005386201773933e-02  3.8005113957649238e-02  3.8004779226375511e-02  3.8004364198260907e-02  3.8003850826900935e-02  3.8003222024367622e-02  3.8002463385125376e-02  3.8001565151580603e-02  3.8481847843342382e-02  3.8480991079960961e-02  3.8480273068085762e-02  3.8479683472627792e-02  3.8479207293513402e-02  3.8478827065323046e-02  3.8478524675551545e-02  3.8478282543019146e-02  3.8478084174700139e-02  3.8477914242328402e-02  3.8477758339245653e-02  3.8477602551979156e-02  3.8477432948760312e-02  3.8477235067800791e-02  3.8476993488741777e-02  3.8476691591327473e-02  3.8476311638817970e-02  3.8475835350099213e-02  3.8475245103555489e-02  3.8474525786791287e-02  3.8473667020059735e-02  3.8936952499843296e-02  3.8936159983366476e-02  3.8935509003082784e-02  3.8934986950885410e-02  3.8934576363411001e-02  3.8934257941915268e-02  3.8934012688346530e-02  3.8933823032391943e-02  3.8933673173481932e-02  3.8933548921897536e-02  3.8933437261931457e-02  3.8933325779314451e-02  3.8933202035103760e-02  3.8933052938484633e-02  3.8932864171766279e-02  3.8932619752508446e-02  3.8932301880138256e-02  3.8931891297385654e-02  3.8931368457411381e-02  3.8930715718539372e-02  3.8929920418202625e-02  3.9364902376226425e-02  3.9364197012453021e-02  3.9363640395043552e-02  3.9363214982384064e-02  3.9362898319170982e-02  3.9362667648838535e-02  3.9362502436018951e-02  3.9362385194732535e-02  3.9362301329957237e-02  3.9362238530729163e-02  3.9362186013233866e-02  3.9362133739769309e-02  3.9362071644177828e-02  3.9361988854847894e-02  3.9361872907139647e-02  3.9361708978692872e-02  3.9361479280187441e-02  3.9361162912575451e-02  3.9360736746501201e-02  3.9360178042431727e-02  3.9359469179790163e-02  3.9755736554411482e-02  3.9755140911276091e-02  3.9754708093819063e-02  3.9754410541309938e-02  3.9754216860723508e-02  3.9754098937429906e-02  3.9754034386536165e-02  3.9754006366696529e-02  3.9754002400788413e-02  3.9754013048217969e-02  3.9754030727826878e-02  3.9754048721577326e-02  3.9754060282947583e-02  3.9754057741344322e-02  3.9754031493951000e-02  3.9753968810187522e-02  3.9753852484537756e-02  3.9753659653034977e-02  3.9753361652933597e-02  3.9752926617892863e-02  3.9752326832815675e-02  4.0100586999930452e-02  4.0100125608134508e-02  4.0099852401799460e-02  4.0099719156667595e-02  4.0099679395527589e-02  4.0099697971943862e-02  4.0099751389606739e-02  4.0099824993146939e-02  4.0099909976663801e-02  4.0100001084065882e-02  4.0100095018549296e-02  4.0100189335318594e-02  4.0100281565607895e-02  4.0100368335734958e-02  4.0100444243765181e-02  4.0100500239000039e-02  4.0100521277104319e-02  4.0100483279057790e-02  4.0100350316466325e-02  4.0100075090261034e-02  4.0099608988408371e-02  4.0391866006926569e-02  4.0391572544653497e-02  4.0391510690329133e-02  4.0391588536636484e-02  4.0391736375635881e-02  4.0391912660582237e-02  4.0392096132146990e-02  4.0392277574452733e-02  4.0392454247992857e-02  4.0392626674154969e-02  4.0392796901973678e-02  4.0392967569365529e-02  4.0393141298891551e-02  4.0393320089238523e-02  4.0393504361137332e-02  4.0393691189573304e-02  4.0393871019608694e-02  4.0394021980799930e-02  4.0394101497383574e-02  4.0394038431305332e-02  4.0393739789746856e-02  4.0623403762364577e-02  4.0623345380012520e-02  4.0623583857018079e-02  4.0623936688757266e-02  4.0624307055889833e-02  4.0624655909981787e-02  4.0624972853955346e-02  4.0625259727464752e-02  4.0625522966796210e-02  4.0625770431387771e-02  4.0626010255717167e-02  4.0626250555636012e-02  4.0626499441844294e-02  4.0626765032008350e-02  4.0627055150591632e-02  4.0627376159213024e-02  4.0627729719940456e-02  4.0628104988737493e-02  4.0628461829658881e-02  4.0628701149159265e-02  4.0628637401818699e-02  4.0790499424024990e-02  4.0790869180663644e-02  4.0791578059723915e-02  4.0792288920849178e-02  4.0792908292357134e-02  4.0793429407788948e-02  4.0793869056222315e-02  4.0794247436886782e-02  4.0794582947721189e-02  4.0794891555835877e-02  4.0795187415284533e-02  4.0795483757392462e-02  4.0795793815806607e-02  4.0796131754041086e-02  4.0796513563167019e-02  4.0796957689537020e-02  4.0797484402814631e-02  4.0798110499479089e-02  4.0798828720185254e-02  4.0799543034079899e-02  4.0799908602542657e-02  4.0889749792543457e-02  4.0891256973146328e-02  4.0892745795433921e-02  4.0893884344529605e-02  4.0894740676050777e-02  4.0895402631786863e-02  4.0895933275559036e-02  4.0896375480810189e-02  4.0896759523553754e-02  4.0897108281609959e-02  4.0897440540417183e-02  4.0897773260444664e-02  4.0898123405705790e-02  4.0898509776394296e-02  4.0898955290769250e-02  4.0899490324017969e-02  4.0900157980236676e-02  4.0901021838305227e-02  4.0902170740477042e-02  4.0903673296395743e-02  4.0905184599846746e-02  4.0918066526072945e-02  4.0923722436080154e-02  4.0926271865127324e-02  4.0927735717891642e-02  4.0928717466102091e-02  4.0929440064746504e-02  4.0930005895417398e-02  4.0930471465412170e-02  4.0930872765587059e-02  4.0931235570788024e-02  4.0931580455401295e-02  4.0931925762425894e-02  4.0932289834540669e-02  4.0932693247712315e-02  4.0933161788504181e-02  4.0933731485811767e-02  4.0934458943000560e-02  4.0935446785431144e-02  4.0936918809884613e-02  4.0939482917264299e-02  4.0945188654403164e-02  </DataArray> 
</PointData> 
</Piece>
</UnstructuredGrid>
</VTKFile>