<?xml version="1.0"?>
<VTKFile type="UnstructuredGrid"  version="0.1"  >
<UnstructuredGrid>
<Piece  NumberOfPoints="441" NumberOfCells="800">
<Points>
<DataArray  type="Float64"  NumberOfComponents="3"  format="ascii">-2 -2 0  -1.8 -2 0  -1.6 -2 0  -1.4 -2 0  -1.2 -2 0  -1 -2 0  -0.8 -2 0  -0.6000000000000001 -2 0  -0.3999999999999999 -2 0  -0.2 -2 0  0 -2 0  0.2000000000000002 -2 0  0.3999999999999999 -2 0  0.6000000000000001 -2 0  0.7999999999999998 -2 0  1 -2 0  1.2 -2 0  1.4 -2 0  1.6 -2 0  1.8 -2 0  2 -2 0  -2 -1.8 0  -1.8 -1.8 0  -1.6 -1.8 0  -1.4 -1.8 0  -1.2 -1.8 0  -1 -1.8 0  -0.8 -1.8 0  -0.6000000000000001 -1.8 0  -0.3999999999999999 -1.8 0  -0.2 -1.8 0  0 -1.8 0  0.2000000000000002 -1.8 0  0.3999999999999999 -1.8 0  0.6000000000000001 -1.8 0  0.7999999999999998 -1.8 0  1 -1.8 0  1.2 -1.8 0  1.4 -1.8 0  1.6 -1.8 0  1.8 -1.8 0  2 -1.8 0  -2 -1.6 0  -1.8 -1.6 0  -1.6 -1.6 0  -1.4 -1.6 0  -1.2 -1.6 0  -1 -1.6 0  -0.8 -1.6 0  -0.6000000000000001 -1.6 0  -0.3999999999999999 -1.6 0  -0.2 -1.6 0  0 -1.6 0  0.2000000000000002 -1.6 0  0.3999999999999999 -1.6 0  0.6000000000000001 -1.6 0  0.7999999999999998 -1.6 0  1 -1.6 0  1.2 -1.6 0  1.4 -1.6 0  1.6 -1.6 0  1.8 -1.6 0  2 -1.6 0  -2 -1.4 0  -1.8 -1.4 0  -1.6 -1.4 0  -1.4 -1.4 0  -1.2 -1.4 0  -1 -1.4 0  -0.8 -1.4 0  -0.6000000000000001 -1.4 0  -0.3999999999999999 -1.4 0  -0.2 -1.4 0  0 -1.4 0  0.2000000000000002 -1.4 0  0.3999999999999999 -1.4 0  0.6000000000000001 -1.4 0  0.7999999999999998 -1.4 0  1 -1.4 0  1.2 -1.4 0  1.4 -1.4 0  1.6 -1.4 0  1.8 -1.4 0  2 -1.4 0  -2 -1.2 0  -1.8 -1.2 0  -1.6 -1.2 0  -1.4 -1.2 0  -1.2 -1.2 0  -1 -1.2 0  -0.8 -1.2 0  -0.6000000000000001 -1.2 0  -0.3999999999999999 -1.2 0  -0.2 -1.2 0  0 -1.2 0  0.2000000000000002 -1.2 0  0.3999999999999999 -1.2 0  0.6000000000000001 -1.2 0  0.7999999999999998 -1.2 0  1 -1.2 0  1.2 -1.2 0  1.4 -1.2 0  1.6 -1.2 0  1.8 -1.2 0  2 -1.2 0  -2 -1 0  -1.8 -1 0  -1.6 -1 0  -1.4 -1 0  -1.2 -1 0  -1 -1 0  -0.8 -1 0  -0.6000000000000001 -1 0  -0.3999999999999999 -1 0  -0.2 -1 0  0 -1 0  0.2000000000000002 -1 0  0.3999999999999999 -1 0  0.6000000000000001 -1 0  0.7999999999999998 -1 0  1 -1 0  1.2 -1 0  1.4 -1 0  1.6 -1 0  1.8 -1 0  2 -1 0  -2 -0.8 0  -1.8 -0.8 0  -1.6 -0.8 0  -1.4 -0.8 0  -1.2 -0.8 0  -1 -0.8 0  -0.8 -0.8 0  -0.6000000000000001 -0.8 0  -0.3999999999999999 -0.8 0  -0.2 -0.8 0  0 -0.8 0  0.2000000000000002 -0.8 0  0.3999999999999999 -0.8 0  0.6000000000000001 -0.8 0  0.7999999999999998 -0.8 0  1 -0.8 0  1.2 -0.8 0  1.4 -0.8 0  1.6 -0.8 0  1.8 -0.8 0  2 -0.8 0  -2 -0.6000000000000001 0  -1.8 -0.6000000000000001 0  -1.6 -0.6000000000000001 0  -1.4 -0.6000000000000001 0  -1.2 -0.6000000000000001 0  -1 -0.6000000000000001 0  -0.8 -0.6000000000000001 0  -0.6000000000000001 -0.6000000000000001 0  -0.3999999999999999 -0.6000000000000001 0  -0.2 -0.6000000000000001 0  0 -0.6000000000000001 0  0.2000000000000002 -0.6000000000000001 0  0.3999999999999999 -0.6000000000000001 0  0.6000000000000001 -0.6000000000000001 0  0.7999999999999998 -0.6000000000000001 0  1 -0.6000000000000001 0  1.2 -0.6000000000000001 0  1.4 -0.6000000000000001 0  1.6 -0.6000000000000001 0  1.8 -0.6000000000000001 0  2 -0.6000000000000001 0  -2 -0.3999999999999999 0  -1.8 -0.3999999999999999 0  -1.6 -0.3999999999999999 0  -1.4 -0.3999999999999999 0  -1.2 -0.3999999999999999 0  -1 -0.3999999999999999 0  -0.8 -0.3999999999999999 0  -0.6000000000000001 -0.3999999999999999 0  -0.3999999999999999 -0.3999999999999999 0  -0.2 -0.3999999999999999 0  0 -0.3999999999999999 0  0.2000000000000002 -0.3999999999999999 0  0.3999999999999999 -0.3999999999999999 0  0.6000000000000001 -0.3999999999999999 0  0.7999999999999998 -0.3999999999999999 0  1 -0.3999999999999999 0  1.2 -0.3999999999999999 0  1.4 -0.3999999999999999 0  1.6 -0.3999999999999999 0  1.8 -0.3999999999999999 0  2 -0.3999999999999999 0  -2 -0.2 0  -1.8 -0.2 0  -1.6 -0.2 0  -1.4 -0.2 0  -1.2 -0.2 0  -1 -0.2 0  -0.8 -0.2 0  -0.6000000000000001 -0.2 0  -0.3999999999999999 -0.2 0  -0.2 -0.2 0  0 -0.2 0  0.2000000000000002 -0.2 0  0.3999999999999999 -0.2 0  0.6000000000000001 -0.2 0  0.7999999999999998 -0.2 0  1 -0.2 0  1.2 -0.2 0  1.4 -0.2 0  1.6 -0.2 0  1.8 -0.2 0  2 -0.2 0  -2 0 0  -1.8 0 0  -1.6 0 0  -1.4 0 0  -1.2 0 0  -1 0 0  -0.8 0 0  -0.6000000000000001 0 0  -0.3999999999999999 0 0  -0.2 0 0  0 0 0  0.2000000000000002 0 0  0.3999999999999999 0 0  0.6000000000000001 0 0  0.7999999999999998 0 0  1 0 0  1.2 0 0  1.4 0 0  1.6 0 0  1.8 0 0  2 0 0  -2 0.2000000000000002 0  -1.8 0.2000000000000002 0  -1.6 0.2000000000000002 0  -1.4 0.2000000000000002 0  -1.2 0.2000000000000002 0  -1 0.2000000000000002 0  -0.8 0.2000000000000002 0  -0.6000000000000001 0.2000000000000002 0  -0.3999999999999999 0.2000000000000002 0  -0.2 0.2000000000000002 0  0 0.2000000000000002 0  0.2000000000000002 0.2000000000000002 0  0.3999999999999999 0.2000000000000002 0  0.6000000000000001 0.2000000000000002 0  0.7999999999999998 0.2000000000000002 0  1 0.2000000000000002 0  1.2 0.2000000000000002 0  1.4 0.2000000000000002 0  1.6 0.2000000000000002 0  1.8 0.2000000000000002 0  2 0.2000000000000002 0  -2 0.3999999999999999 0  -1.8 0.3999999999999999 0  -1.6 0.3999999999999999 0  -1.4 0.3999999999999999 0  -1.2 0.3999999999999999 0  -1 0.3999999999999999 0  -0.8 0.3999999999999999 0  -0.6000000000000001 0.3999999999999999 0  -0.3999999999999999 0.3999999999999999 0  -0.2 0.3999999999999999 0  0 0.3999999999999999 0  0.2000000000000002 0.3999999999999999 0  0.3999999999999999 0.3999999999999999 0  0.6000000000000001 0.3999999999999999 0  0.7999999999999998 0.3999999999999999 0  1 0.3999999999999999 0  1.2 0.3999999999999999 0  1.4 0.3999999999999999 0  1.6 0.3999999999999999 0  1.8 0.3999999999999999 0  2 0.3999999999999999 0  -2 0.6000000000000001 0  -1.8 0.6000000000000001 0  -1.6 0.6000000000000001 0  -1.4 0.6000000000000001 0  -1.2 0.6000000000000001 0  -1 0.6000000000000001 0  -0.8 0.6000000000000001 0  -0.6000000000000001 0.6000000000000001 0  -0.3999999999999999 0.6000000000000001 0  -0.2 0.6000000000000001 0  0 0.6000000000000001 0  0.2000000000000002 0.6000000000000001 0  0.3999999999999999 0.6000000000000001 0  0.6000000000000001 0.6000000000000001 0  0.7999999999999998 0.6000000000000001 0  1 0.6000000000000001 0  1.2 0.6000000000000001 0  1.4 0.6000000000000001 0  1.6 0.6000000000000001 0  1.8 0.6000000000000001 0  2 0.6000000000000001 0  -2 0.7999999999999998 0  -1.8 0.7999999999999998 0  -1.6 0.7999999999999998 0  -1.4 0.7999999999999998 0  -1.2 0.7999999999999998 0  -1 0.7999999999999998 0  -0.8 0.7999999999999998 0  -0.6000000000000001 0.7999999999999998 0  -0.3999999999999999 0.7999999999999998 0  -0.2 0.7999999999999998 0  0 0.7999999999999998 0  0.2000000000000002 0.7999999999999998 0  0.3999999999999999 0.7999999999999998 0  0.6000000000000001 0.7999999999999998 0  0.7999999999999998 0.7999999999999998 0  1 0.7999999999999998 0  1.2 0.7999999999999998 0  1.4 0.7999999999999998 0  1.6 0.7999999999999998 0  1.8 0.7999999999999998 0  2 0.7999999999999998 0  -2 1 0  -1.8 1 0  -1.6 1 0  -1.4 1 0  -1.2 1 0  -1 1 0  -0.8 1 0  -0.6000000000000001 1 0  -0.3999999999999999 1 0  -0.2 1 0  0 1 0  0.2000000000000002 1 0  0.3999999999999999 1 0  0.6000000000000001 1 0  0.7999999999999998 1 0  1 1 0  1.2 1 0  1.4 1 0  1.6 1 0  1.8 1 0  2 1 0  -2 1.2 0  -1.8 1.2 0  -1.6 1.2 0  -1.4 1.2 0  -1.2 1.2 0  -1 1.2 0  -0.8 1.2 0  -0.6000000000000001 1.2 0  -0.3999999999999999 1.2 0  -0.2 1.2 0  0 1.2 0  0.2000000000000002 1.2 0  0.3999999999999999 1.2 0  0.6000000000000001 1.2 0  0.7999999999999998 1.2 0  1 1.2 0  1.2 1.2 0  1.4 1.2 0  1.6 1.2 0  1.8 1.2 0  2 1.2 0  -2 1.4 0  -1.8 1.4 0  -1.6 1.4 0  -1.4 1.4 0  -1.2 1.4 0  -1 1.4 0  -0.8 1.4 0  -0.6000000000000001 1.4 0  -0.3999999999999999 1.4 0  -0.2 1.4 0  0 1.4 0  0.2000000000000002 1.4 0  0.3999999999999999 1.4 0  0.6000000000000001 1.4 0  0.7999999999999998 1.4 0  1 1.4 0  1.2 1.4 0  1.4 1.4 0  1.6 1.4 0  1.8 1.4 0  2 1.4 0  -2 1.6 0  -1.8 1.6 0  -1.6 1.6 0  -1.4 1.6 0  -1.2 1.6 0  -1 1.6 0  -0.8 1.6 0  -0.6000000000000001 1.6 0  -0.3999999999999999 1.6 0  -0.2 1.6 0  0 1.6 0  0.2000000000000002 1.6 0  0.3999999999999999 1.6 0  0.6000000000000001 1.6 0  0.7999999999999998 1.6 0  1 1.6 0  1.2 1.6 0  1.4 1.6 0  1.6 1.6 0  1.8 1.6 0  2 1.6 0  -2 1.8 0  -1.8 1.8 0  -1.6 1.8 0  -1.4 1.8 0  -1.2 1.8 0  -1 1.8 0  -0.8 1.8 0  -0.6000000000000001 1.8 0  -0.3999999999999999 1.8 0  -0.2 1.8 0  0 1.8 0  0.2000000000000002 1.8 0  0.3999999999999999 1.8 0  0.6000000000000001 1.8 0  0.7999999999999998 1.8 0  1 1.8 0  1.2 1.8 0  1.4 1.8 0  1.6 1.8 0  1.8 1.8 0  2 1.8 0  -2 2 0  -1.8 2 0  -1.6 2 0  -1.4 2 0  -1.2 2 0  -1 2 0  -0.8 2 0  -0.6000000000000001 2 0  -0.3999999999999999 2 0  -0.2 2 0  0 2 0  0.2000000000000002 2 0  0.3999999999999999 2 0  0.6000000000000001 2 0  0.7999999999999998 2 0  1 2 0  1.2 2 0  1.4 2 0  1.6 2 0  1.8 2 0  2 2 0  </DataArray>
</Points>
<Cells>
[...]
<PointData  Scalars="f_8"> 
<DataArray  type="Float64"  Name="f_8"  format="ascii">1.2394192286474062e-01  1.1930027040448865e-01  1.0844761089058244e-01  9.3143831855590206e-02  7.5649899642062784e-02  5.8164487508559438e-02  4.2389860105765544e-02  2.9325782827191230e-02  1.9289060215863001e-02  1.2083489652784340e-02  7.2225712625692880e-03  4.1272262649807486e-03  2.2593899221882382e-03  1.1875274546365576e-03  6.0066499425629036e-04  2.9313995341743055e-04  1.3847422000663677e-04  6.3701131997485132e-05  2.9148945350260969e-05  1.4636912770757434e-05  1.1197262528540991e-05  1.2258021219370316e-01  1.1894943933599249e-01  1.0877441356637930e-01  9.3814073717937249e-02  7.6370203025874717e-02  5.8727983497878077e-02  4.2697421629597519e-02  2.9375089313454471e-02  1.9141098887414307e-02  1.1823311786560209e-02  6.9283539296233817e-03  3.8538681388360406e-03  2.0354797005746679e-03  1.0206001876275825e-03  4.8532681729113538e-04  2.1836927918867586e-04  9.2527811414855964e-05  3.6579512717656658e-05  1.3271923362496227e-05  4.4451954763882252e-06  2.1235826612162797e-06  1.2258735081368820e-01  1.1902201659065823e-01  1.0894922416155162e-01  9.4048042631243153e-02  7.6589594119276710e-02  5.8869343471783846e-02  4.2730847468002778e-02  2.9307329228594275e-02  1.9003946394306370e-02  1.1656718143274392e-02  6.7664862733183995e-03  3.7180875489220746e-03  1.9339439970198801e-03  9.5182987631889685e-04  4.4282314098929864e-04  1.9437322508606927e-04  8.0237892010863012e-05  3.0993935189010534e-05  1.1158081882502175e-05  3.9166710383208962e-06  2.1307534936561924e-06  1.2266186166496848e-01  1.1910046928240421e-01  1.0903118523591365e-01  9.4122722226577235e-02  7.6641276799528091e-02  5.8886200912632067e-02  4.2710926994742250e-02  2.9258921967621268e-02  1.8941314984988983e-02  1.1594299689571807e-02  6.7145343613354488e-03  3.6811052133229561e-03  1.9115519414812190e-03  9.4082255428874436e-04  4.3919975724323815e-04  1.9467418959184040e-04  8.2087072964129898e-05  3.3079133798156581e-05  1.2955939540119965e-05  5.3896055932744568e-06  3.5052491998379106e-06  1.2268394881321355e-01  1.1912201275885281e-01  1.0905008959861666e-01  9.4136222200406877e-02  7.6646872930616311e-02  5.8883061106884280e-02  4.2700638197546964e-02  2.9245004906240539e-02  1.8927812650205059e-02  1.1584292198996163e-02  6.7093251784420072e-03  3.6802965872995202e-03  1.9137237151905574e-03  9.4433597927732810e-04  4.4276471963452992e-04  1.9756311489380881e-04  8.4073912121276749e-05  3.4254606708412840e-05  1.3545030976960073e-05  5.6350780489456128e-06  3.6286135843651610e-06  1.2268573590752123e-01  1.1912349862796232e-01  1.0905093299618818e-01  9.4136147503926293e-02  7.6645814612257321e-02  5.8881296811540806e-02  4.2698768550446804e-02  2.9243735304266494e-02  1.8927648019871783e-02  1.1585327257221688e-02  6.7112444437476626e-03  3.6825583351801521e-03  1.9158023732928032e-03  9.4589573613990010e-04  4.4370788490903456e-04  1.9797502836614735e-04  8.4125012642728781e-05  3.4114152796454897e-05  1.3332210369561567e-05  5.4066508734440463e-06  3.3901329190323004e-06  1.2268541290488377e-01  1.1912311941909901e-01  1.0905051431413436e-01  9.4135727398814831e-02  7.6645456689153471e-02  5.8881083514088689e-02  4.2698774392696537e-02  2.9243987176016947e-02  1.8928097177640574e-02  1.1585856553408052e-02  6.7117120547458839e-03  3.6828540409730723e-03  1.9158851127755196e-03  9.4579570211475352e-04  4.4349910044764356e-04  1.9773834953003023e-04  8.3920400255712061e-05  3.3970226375597733e-05  1.3250017496687530e-05  5.3692062473355518e-06  3.3699756632205651e-06  1.2268538421644265e-01  1.1912309120439449e-01  1.0905049301244733e-01  9.4135720191587266e-02  7.6645469442880323e-02  5.8881117753049841e-02  4.2698823997228512e-02  2.9244037046033889e-02  1.8928126456333013e-02  1.1585846599637495e-02  6.7116554813211960e-03  3.6827593049944016e-03  1.9157734775593332e-03  9.4569224682914386e-04  4.4342298302583127e-04  1.9769728499271203e-04  8.3911100705306904e-05  3.3983103043902624e-05  1.3274902698147939e-05  5.3994078394540678e-06  3.4034209717415107e-06  1.2268539355388076e-01  1.1912310197329207e-01  1.0905050469140944e-01  9.4135731864295830e-02  7.6645479731121041e-02  5.8881124856780154e-02  4.2698825969012824e-02  2.9244032426631497e-02  1.8928115192500081e-02  1.1585830787929106e-02  6.7116392801783676e-03  3.6827476922646671e-03  1.9157702980349110e-03  9.4569859178539870e-04  4.4343682461550648e-04  1.9771451422415407e-04  8.3927299215044463e-05  3.3995103217612912e-05  1.3281550281831678e-05  5.4015621811938189e-06  3.4036425374452814e-06  1.2268539326446533e-01  1.1912310160194396e-01  1.0905050417628033e-01  9.4135731138298206e-02  7.6645478754787236e-02  5.8881123665833743e-02  4.2698824727911464e-02  2.9244031465941484e-02  1.8928114988889220e-02  1.1585831842965204e-02  6.7116418995281152e-03  3.6827517544769190e-03  1.9157751631752383e-03  9.4570325604988778e-04  4.4344028047401340e-04  1.9771613138421995e-04  8.3927016611380265e-05  3.3993336982357815e-05  1.3278889349013806e-05  5.3984327610878022e-06  3.4001331471581029e-06  1.2268539308484967e-01  1.1912310137721831e-01  1.0905050391782249e-01  9.4135730871453493e-02  7.6645478516770837e-02  5.8881123500321243e-02  4.2698824675352645e-02  2.9244031549246388e-02  1.8928115195875332e-02  1.1585832111010285e-02  6.7116421133314339e-03  3.6827517690649174e-03  1.9157748543965089e-03  9.4570258119060983e-04  4.4343931643727586e-04  1.9771506336746866e-04  8.3926077069086257e-05  3.3992723498952469e-05  1.3278697759039438e-05  5.3986231416033249e-06  3.4005194340108076e-06  1.2268539316768115e-01  1.1912310148265964e-01  1.0905050405882480e-01  9.4135731033721318e-02  7.6645478668768766e-02  5.8881123606108428e-02  4.2698824706615617e-02  2.9244031493009266e-02  1.8928115056164853e-02  1.1585831905629651e-02  6.7116418690199740e-03  3.6827515179386930e-03  1.9157746317618376e-03  9.4570242206514410e-04  4.4343924841017861e-04  1.9771509727289097e-04  8.3926201194804939e-05  3.3992907481478691e-05  1.3278907529080040e-05  5.3988409129367406e-06  3.4007569925876261e-06  1.2268539120582975e-01  1.1912309992770356e-01  1.0905050298868017e-01  9.4135730518979333e-02  7.6645478739923070e-02  5.8881124217854221e-02  4.2698825725250009e-02  2.9244032719024288e-02  1.8928116274600400e-02  1.1585832942032562e-02  6.7116426270604282e-03  3.6827519858316110e-03  1.9157748606905512e-03  9.4570249116026749e-04  4.4343923265021036e-04  1.9771504865028332e-04  8.3926144913729788e-05  3.3992848611731405e-05  1.3278841536854130e-05  5.3987632186024751e-06  3.4006699019844343e-06  1.2268540088692698e-01  1.1912310703326863e-01  1.0905050625737843e-01  9.4135729757492029e-02  7.6645474673293634e-02  5.8881118205492612e-02  4.2698819355442098e-02  2.9244027372362136e-02  1.8928112793838596e-02  1.1585831516109989e-02  6.7116429027885343e-03  3.6827533223392061e-03  1.9157765986597133e-03  9.4570413635692934e-04  4.4344051963200352e-04  1.9771591000918324e-04  8.3926637106503197e-05  3.3993078655378222e-05  1.3278917000425403e-05  5.3987680007943160e-06  3.4006581481922228e-06  1.2268545323263309e-01  1.1912315308837661e-01  1.0905054889543485e-01  9.4135767873870568e-02  7.6645504313267068e-02  5.8881134997220266e-02  4.2698820953302540e-02  2.9244014793332520e-02  1.8928090162562004e-02  1.1585804542233092e-02  6.7116169704800766e-03  3.6827320853558970e-03  1.9157615251395336e-03  9.4569489506627887e-04  4.4343577475583257e-04  1.9771408645561747e-04  8.3926410651123426e-05  3.3993557745519689e-05  1.3279609025724284e-05  5.3994507958944558e-06  3.4012476098346874e-06  1.2268488020889891e-01  1.1912266896330388e-01  1.0905021640892888e-01  9.4135614156269920e-02  7.6645521769115502e-02  5.8881286935812634e-02  4.2699052032925892e-02  2.9244265452952650e-02  1.8928311350620258e-02  1.1585967540128668e-02  6.7117151201314656e-03  3.6827753151185152e-03  1.9157676041076899e-03  9.4568161800987860e-04  4.4341642566763864e-04  1.9769629247622098e-04  8.3913162256846381e-05  3.3984972103878275e-05  1.3274494470675511e-05  5.3963312745738158e-06  3.3988977801621769e-06  1.2268283204392387e-01  1.1912079096030027e-01  1.0904842788576882e-01  9.4133911621899227e-02  7.6644005394426229e-02  5.8880123163281076e-02  4.2698385215311774e-02  2.9244136458223408e-02  1.8928633941267842e-02  1.1586568467548162e-02  6.7124044240325573e-03  3.6834055958423579e-03  1.9162597664117717e-03  9.4601869320962335e-04  4.4362065417728839e-04  1.9780501546969140e-04  8.3962241884614667e-05  3.4001311695437935e-05  1.3275205501398766e-05  5.3911999483016085e-06  3.3935140389986176e-06  1.2269588494859429e-01  1.1913250200544849e-01  1.0905652594576380e-01  9.4136611945817641e-02  7.6640744899057908e-02  5.8871906251176082e-02  4.2687397327678525e-02  2.9232868777743070e-02  1.8919036406109944e-02  1.1579616432967184e-02  6.7081438703079851e-03  3.6812935877729961e-03  1.9155553885674627e-03  9.4606119759154739e-04  4.4395099833585970e-04  1.9816827458110647e-04  8.4252880377511349e-05  3.4200004580659627e-05  1.3401186178428361e-05  5.4743543555620684e-06  3.4599516564511123e-06  1.2278050200331495e-01  1.1921590152068849e-01  1.0913305501709016e-01  9.4194626166564585e-02  7.6669382087009352e-02  5.8867146055739700e-02  4.2653848804689330e-02  2.9181274604870983e-02  1.8861768885109841e-02  1.1526735583572655e-02  6.6654603430192950e-03  3.6504646111378829e-03  1.8953802772625535e-03  9.3402305210812009e-04  4.3739360158130658e-04  1.9492432035433908e-04  8.2821907742055851e-05  3.3669349268071793e-05  1.3274900070421110e-05  5.5034462162023405e-06  3.5025332917698061e-06  1.2285322669768316e-01  1.1935371324357481e-01  1.0935081846416475e-01  9.4441321732181491e-02  7.6875691654602174e-02  5.8981470328757377e-02  4.2659334533794661e-02  2.9093971347721598e-02  1.8716968212038009e-02  1.1362858101521411e-02  6.5124612138069702e-03  3.5252387607505203e-03  1.8029068347814173e-03  8.7137551775766733e-04  3.9802374910637161e-04  1.7178680531506371e-04  7.0021191637663311e-05  2.6952128804831620e-05  9.8638718757870506e-06  3.6666531237414569e-06  2.0644395953038615e-06  1.2152298781925643e-01  1.1901600550456941e-01  1.0969658548999542e-01  9.5145934865239631e-02  7.7640052502007478e-02  5.9584571888056284e-02  4.2989156793342607e-02  2.9143284145860957e-02  1.8550818420609450e-02  1.1075654473860715e-02  6.1919736292439060e-03  3.2326373224311191e-03  1.5687645803544841e-03  7.0196071256384805e-04  2.8519760727498979e-04  1.0179099927885792e-04  2.9167083924788502e-05  4.2473434147371094e-06  -2.4768550240952517e-06  -3.4824135698506861e-06  -3.4857798412842852e-06  </DataArray> 
</PointData> 
</Piece>
</UnstructuredGrid>
</VTKFile>