<?xml version="1.0"?>
<VTKFile type="UnstructuredGrid"  version="0.1"  >
<UnstructuredGrid>
<Piece  NumberOfPoints="441" NumberOfCells="800">
<Points>
<DataArray  type="Float64"  NumberOfComponents="3"  format="ascii">-2 -2 0  -1.8 -2 0  -1.6 -2 0  -1.4 -2 0  -1.2 -2 0  -1 -2 0  -0.8 -2 0  -0.6000000000000001 -2 0  -0.3999999999999999 -2 0  -0.2 -2 0  0 -2 0  0.2000000000000002 -2 0  0.3999999999999999 -2 0  0.6000000000000001 -2 0  0.7999999999999998 -2 0  1 -2 0  1.2 -2 0  1.4 -2 0  1.6 -2 0  1.8 -2 0  2 -2 0  -2 -1.8 0  -1.8 -1.8 0  -1.6 -1.8 0  -1.4 -1.8 0  -1.2 -1.8 0  -1 -1.8 0  -0.8 -1.8 0  -0.6000000000000001 -1.8 0  -0.3999999999999999 -1.8 0  -0.2 -1.8 0  0 -1.8 0  0.2000000000000002 -1.8 0  0.3999999999999999 -1.8 0  0.6000000000000001 -1.8 0  0.7999999999999998 -1.8 0  1 -1.8 0  1.2 -1.8 0  1.4 -1.8 0  1.6 -1.8 0  1.8 -1.8 0  2 -1.8 0  -2 -1.6 0  -1.8 -1.6 0  -1.6 -1.6 0  -1.4 -1.6 0  -1.2 -1.6 0  -1 -1.6 0  -0.8 -1.6 0  -0.6000000000000001 -1.6 0  -0.3999999999999999 -1.6 0  -0.2 -1.6 0  0 -1.6 0  0.2000000000000002 -1.6 0  0.3999999999999999 -1.6 0  0.6000000000000001 -1.6 0  0.7999999999999998 -1.6 0  1 -1.6 0  1.2 -1.6 0  1.4 -1.6 0  1.6 -1.6 0  1.8 -1.6 0  2 -1.6 0  -2 -1.4 0  -1.8 -1.4 0  -1.6 -1.4 0  -1.4 -1.4 0  -1.2 -1.4 0  -1 -1.4 0  -0.8 -1.4 0  -0.6000000000000001 -1.4 0  -0.3999999999999999 -1.4 0  -0.2 -1.4 0  0 -1.4 0  0.2000000000000002 -1.4 0  0.3999999999999999 -1.4 0  0.6000000000000001 -1.4 0  0.7999999999999998 -1.4 0  1 -1.4 0  1.2 -1.4 0  1.4 -1.4 0  1.6 -1.4 0  1.8 -1.4 0  2 -1.4 0  -2 -1.2 0  -1.8 -1.2 0  -1.6 -1.2 0  -1.4 -1.2 0  -1.2 -1.2 0  -1 -1.2 0  -0.8 -1.2 0  -0.6000000000000001 -1.2 0  -0.3999999999999999 -1.2 0  -0.2 -1.2 0  0 -1.2 0  0.2000000000000002 -1.2 0  0.3999999999999999 -1.2 0  0.6000000000000001 -1.2 0  0.7999999999999998 -1.2 0  1 -1.2 0  1.2 -1.2 0  1.4 -1.2 0  1.6 -1.2 0  1.8 -1.2 0  2 -1.2 0  -2 -1 0  -1.8 -1 0  -1.6 -1 0  -1.4 -1 0  -1.2 -1 0  -1 -1 0  -0.8 -1 0  -0.6000000000000001 -1 0  -0.3999999999999999 -1 0  -0.2 -1 0  0 -1 0  0.2000000000000002 -1 0  0.3999999999999999 -1 0  0.6000000000000001 -1 0  0.7999999999999998 -1 0  1 -1 0  1.2 -1 0  1.4 -1 0  1.6 -1 0  1.8 -1 0  2 -1 0  -2 -0.8 0  -1.8 -0.8 0  -1.6 -0.8 0  -1.4 -0.8 0  -1.2 -0.8 0  -1 -0.8 0  -0.8 -0.8 0  -0.6000000000000001 -0.8 0  -0.3999999999999999 -0.8 0  -0.2 -0.8 0  0 -0.8 0  0.2000000000000002 -0.8 0  0.3999999999999999 -0.8 0  0.6000000000000001 -0.8 0  0.7999999999999998 -0.8 0  1 -0.8 0  1.2 -0.8 0  1.4 -0.8 0  1.6 -0.8 0  1.8 -0.8 0  2 -0.8 0  -2 -0.6000000000000001 0  -1.8 -0.6000000000000001 0  -1.6 -0.6000000000000001 0  -1.4 -0.6000000000000001 0  -1.2 -0.6000000000000001 0  -1 -0.6000000000000001 0  -0.8 -0.6000000000000001 0  -0.6000000000000001 -0.6000000000000001 0  -0.3999999999999999 -0.6000000000000001 0  -0.2 -0.6000000000000001 0  0 -0.6000000000000001 0  0.2000000000000002 -0.6000000000000001 0  0.3999999999999999 -0.6000000000000001 0  0.6000000000000001 -0.6000000000000001 0  0.7999999999999998 -0.6000000000000001 0  1 -0.6000000000000001 0  1.2 -0.6000000000000001 0  1.4 -0.6000000000000001 0  1.6 -0.6000000000000001 0  1.8 -0.6000000000000001 0  2 -0.6000000000000001 0  -2 -0.3999999999999999 0  -1.8 -0.3999999999999999 0  -1.6 -0.3999999999999999 0  -1.4 -0.3999999999999999 0  -1.2 -0.3999999999999999 0  -1 -0.3999999999999999 0  -0.8 -0.3999999999999999 0  -0.6000000000000001 -0.3999999999999999 0  -0.3999999999999999 -0.3999999999999999 0  -0.2 -0.3999999999999999 0  0 -0.3999999999999999 0  0.2000000000000002 -0.3999999999999999 0  0.3999999999999999 -0.3999999999999999 0  0.6000000000000001 -0.3999999999999999 0  0.7999999999999998 -0.3999999999999999 0  1 -0.3999999999999999 0  1.2 -0.3999999999999999 0  1.4 -0.3999999999999999 0  1.6 -0.3999999999999999 0  1.8 -0.3999999999999999 0  2 -0.3999999999999999 0  -2 -0.2 0  -1.8 -0.2 0  -1.6 -0.2 0  -1.4 -0.2 0  -1.2 -0.2 0  -1 -0.2 0  -0.8 -0.2 0  -0.6000000000000001 -0.2 0  -0.3999999999999999 -0.2 0  -0.2 -0.2 0  0 -0.2 0  0.2000000000000002 -0.2 0  0.3999999999999999 -0.2 0  0.6000000000000001 -0.2 0  0.7999999999999998 -0.2 0  1 -0.2 0  1.2 -0.2 0  1.4 -0.2 0  1.6 -0.2 0  1.8 -0.2 0  2 -0.2 0  -2 0 0  -1.8 0 0  -1.6 0 0  -1.4 0 0  -1.2 0 0  -1 0 0  -0.8 0 0  -0.6000000000000001 0 0  -0.3999999999999999 0 0  -0.2 0 0  0 0 0  0.2000000000000002 0 0  0.3999999999999999 0 0  0.6000000000000001 0 0  0.7999999999999998 0 0  1 0 0  1.2 0 0  1.4 0 0  1.6 0 0  1.8 0 0  2 0 0  -2 0.2000000000000002 0  -1.8 0.2000000000000002 0  -1.6 0.2000000000000002 0  -1.4 0.2000000000000002 0  -1.2 0.2000000000000002 0  -1 0.2000000000000002 0  -0.8 0.2000000000000002 0  -0.6000000000000001 0.2000000000000002 0  -0.3999999999999999 0.2000000000000002 0  -0.2 0.2000000000000002 0  0 0.2000000000000002 0  0.2000000000000002 0.2000000000000002 0  0.3999999999999999 0.2000000000000002 0  0.6000000000000001 0.2000000000000002 0  0.7999999999999998 0.2000000000000002 0  1 0.2000000000000002 0  1.2 0.2000000000000002 0  1.4 0.2000000000000002 0  1.6 0.2000000000000002 0  1.8 0.2000000000000002 0  2 0.2000000000000002 0  -2 0.3999999999999999 0  -1.8 0.3999999999999999 0  -1.6 0.3999999999999999 0  -1.4 0.3999999999999999 0  -1.2 0.3999999999999999 0  -1 0.3999999999999999 0  -0.8 0.3999999999999999 0  -0.6000000000000001 0.3999999999999999 0  -0.3999999999999999 0.3999999999999999 0  -0.2 0.3999999999999999 0  0 0.3999999999999999 0  0.2000000000000002 0.3999999999999999 0  0.3999999999999999 0.3999999999999999 0  0.6000000000000001 0.3999999999999999 0  0.7999999999999998 0.3999999999999999 0  1 0.3999999999999999 0  1.2 0.3999999999999999 0  1.4 0.3999999999999999 0  1.6 0.3999999999999999 0  1.8 0.3999999999999999 0  2 0.3999999999999999 0  -2 0.6000000000000001 0  -1.8 0.6000000000000001 0  -1.6 0.6000000000000001 0  -1.4 0.6000000000000001 0  -1.2 0.6000000000000001 0  -1 0.6000000000000001 0  -0.8 0.6000000000000001 0  -0.6000000000000001 0.6000000000000001 0  -0.3999999999999999 0.6000000000000001 0  -0.2 0.6000000000000001 0  0 0.6000000000000001 0  0.2000000000000002 0.6000000000000001 0  0.3999999999999999 0.6000000000000001 0  0.6000000000000001 0.6000000000000001 0  0.7999999999999998 0.6000000000000001 0  1 0.6000000000000001 0  1.2 0.6000000000000001 0  1.4 0.6000000000000001 0  1.6 0.6000000000000001 0  1.8 0.6000000000000001 0  2 0.6000000000000001 0  -2 0.7999999999999998 0  -1.8 0.7999999999999998 0  -1.6 0.7999999999999998 0  -1.4 0.7999999999999998 0  -1.2 0.7999999999999998 0  -1 0.7999999999999998 0  -0.8 0.7999999999999998 0  -0.6000000000000001 0.7999999999999998 0  -0.3999999999999999 0.7999999999999998 0  -0.2 0.7999999999999998 0  0 0.7999999999999998 0  0.2000000000000002 0.7999999999999998 0  0.3999999999999999 0.7999999999999998 0  0.6000000000000001 0.7999999999999998 0  0.7999999999999998 0.7999999999999998 0  1 0.7999999999999998 0  1.2 0.7999999999999998 0  1.4 0.7999999999999998 0  1.6 0.7999999999999998 0  1.8 0.7999999999999998 0  2 0.7999999999999998 0  -2 1 0  -1.8 1 0  -1.6 1 0  -1.4 1 0  -1.2 1 0  -1 1 0  -0.8 1 0  -0.6000000000000001 1 0  -0.3999999999999999 1 0  -0.2 1 0  0 1 0  0.2000000000000002 1 0  0.3999999999999999 1 0  0.6000000000000001 1 0  0.7999999999999998 1 0  1 1 0  1.2 1 0  1.4 1 0  1.6 1 0  1.8 1 0  2 1 0  -2 1.2 0  -1.8 1.2 0  -1.6 1.2 0  -1.4 1.2 0  -1.2 1.2 0  -1 1.2 0  -0.8 1.2 0  -0.6000000000000001 1.2 0  -0.3999999999999999 1.2 0  -0.2 1.2 0  0 1.2 0  0.2000000000000002 1.2 0  0.3999999999999999 1.2 0  0.6000000000000001 1.2 0  0.7999999999999998 1.2 0  1 1.2 0  1.2 1.2 0  1.4 1.2 0  1.6 1.2 0  1.8 1.2 0  2 1.2 0  -2 1.4 0  -1.8 1.4 0  -1.6 1.4 0  -1.4 1.4 0  -1.2 1.4 0  -1 1.4 0  -0.8 1.4 0  -0.6000000000000001 1.4 0  -0.3999999999999999 1.4 0  -0.2 1.4 0  0 1.4 0  0.2000000000000002 1.4 0  0.3999999999999999 1.4 0  0.6000000000000001 1.4 0  0.7999999999999998 1.4 0  1 1.4 0  1.2 1.4 0  1.4 1.4 0  1.6 1.4 0  1.8 1.4 0  2 1.4 0  -2 1.6 0  -1.8 1.6 0  -1.6 1.6 0  -1.4 1.6 0  -1.2 1.6 0  -1 1.6 0  -0.8 1.6 0  -0.6000000000000001 1.6 0  -0.3999999999999999 1.6 0  -0.2 1.6 0  0 1.6 0  0.2000000000000002 1.6 0  0.3999999999999999 1.6 0  0.6000000000000001 1.6 0  0.7999999999999998 1.6 0  1 1.6 0  1.2 1.6 0  1.4 1.6 0  1.6 1.6 0  1.8 1.6 0  2 1.6 0  -2 1.8 0  -1.8 1.8 0  -1.6 1.8 0  -1.4 1.8 0  -1.2 1.8 0  -1 1.8 0  -0.8 1.8 0  -0.6000000000000001 1.8 0  -0.3999999999999999 1.8 0  -0.2 1.8 0  0 1.8 0  0.2000000000000002 1.8 0  0.3999999999999999 1.8 0  0.6000000000000001 1.8 0  0.7999999999999998 1.8 0  1 1.8 0  1.2 1.8 0  1.4 1.8 0  1.6 1.8 0  1.8 1.8 0  2 1.8 0  -2 2 0  -1.8 2 0  -1.6 2 0  -1.4 2 0  -1.2 2 0  -1 2 0  -0.8 2 0  -0.6000000000000001 2 0  -0.3999999999999999 2 0  -0.2 2 0  0 2 0  0.2000000000000002 2 0  0.3999999999999999 2 0  0.6000000000000001 2 0  0.7999999999999998 2 0  1 2 0  1.2 2 0  1.4 2 0  1.6 2 0  1.8 2 0  2 2 0  </DataArray>
</Points>
<Cells>
[...]
<PointData  Scalars="f_8"> 
<DataArray  type="Float64"  Name="f_8"  format="ascii">7.9104694207412798e-02  7.7888211060354900e-02  7.4916624366089854e-02  7.0380578173380393e-02  6.4577589898581936e-02  5.7873923030537081e-02  5.0663250927005250e-02  4.3327338889870580e-02  3.6203395194429881e-02  2.9561284915772205e-02  2.3591922991909615e-02  1.8406326199069442e-02  1.4043371879893385e-02  1.0483489472100340e-02  7.6653317349840763e-03  5.5028268034675951e-03  3.9007062438179575e-03  2.7674237918122045e-03  2.0251416014941065e-03  1.6170464186821610e-03  1.5126233447827785e-03  7.8638274648656276e-02  7.7675107759411499e-02  7.4876661782211432e-02  7.0455815089797647e-02  6.4722574620294140e-02  5.8051664861827022e-02  5.0844124441935853e-02  4.3489149388476332e-02  3.6331535477573070e-02  2.9648435331354039e-02  2.3637132868816604e-02  1.8413574344667172e-02  1.4019841114304338e-02  1.0437819079345781e-02  7.6060575874089056e-03  5.4371129068578605e-03  3.8333416716156499e-03  2.6999219710760287e-03  1.9546327432116285e-03  1.5344718415556216e-03  1.3994619690150104e-03  7.8590806132477362e-02  7.7646088242570743e-02  7.4881387789982379e-02  7.0494303996416693e-02  6.4786460220812955e-02  5.8128841769246001e-02  5.0922026372888562e-02  4.3556999011187175e-02  3.6381685796953764e-02  2.9676887093302851e-02  2.3643358169592722e-02  1.8399835841192369e-02  1.3990229648096153e-02  1.0397225437857174e-02  7.5592508572566658e-03  5.3880345984768626e-03  3.7846623955515354e-03  2.6528664284802225e-03  1.9090778150880417e-03  1.4893815029400281e-03  1.3538711649166424e-03  7.8609579643469527e-02  7.7667129247611585e-02  7.4907766658003305e-02  7.0526422932467345e-02  6.4822259355608119e-02  5.8164682758776218e-02  5.0953774234500905e-02  4.3580998206383628e-02  3.6395450487638564e-02  2.9679429831398086e-02  2.3635169536599995e-02  1.8382592609227387e-02  1.3966344164208380e-02  1.0369353300580513e-02  7.5298535456964650e-03  5.3590591941459513e-03  3.7573637133993944e-03  2.6277672653084415e-03  1.8860453575786499e-03  1.4677905113208425e-03  1.3328174808715824e-03  7.8630161585368577e-02  7.7687837964612566e-02  7.4928476068395936e-02  7.0546590792201685e-02  6.4840905220294745e-02  5.8180561514729182e-02  5.0965654335784719e-02  4.3587943769429587e-02  3.6397026713319375e-02  2.9675787065377348e-02  2.3627000197247682e-02  1.8370987192535687e-02  1.3952591308659442e-02  1.0354732752754990e-02  7.5154622659790284e-03  5.3456949210392603e-03  3.7454729113208839e-03  2.6174502859118770e-03  1.8771034504931111e-03  1.4597972315151786e-03  1.3251994570816507e-03  7.8641031433710137e-02  7.7698569906673398e-02  7.4938665494545267e-02  7.0555796910619875e-02  6.4848670649134091e-02  5.8186465524949264e-02  5.0969383579634896e-02  4.3589356905876460e-02  3.6396191732764177e-02  2.9672979496445488e-02  2.3622662430407570e-02  1.8365659650465008e-02  1.3946832211112004e-02  1.0349043764060499e-02  7.5102332146774666e-03  5.3411740885424214e-03  3.7417624778042996e-03  2.6145213255516029e-03  1.8748224041052169e-03  1.4579560915719794e-03  1.3235442741130364e-03  7.8644897432082042e-02  7.7702342752602599e-02  7.4942148781009355e-02  7.0558805920786255e-02  6.4851047482742313e-02  5.8188096738005270e-02  5.0970216534593590e-02  4.3589409869118641e-02  3.6395553716572812e-02  2.9671798483719855e-02  2.3621123858548646e-02  1.8363959661312143e-02  1.3945151340256822e-02  1.0347526198677988e-02  7.5089748522048352e-03  5.3402201216399114e-03  3.7411129277088173e-03  2.6141414567578654e-03  1.8746545396031047e-03  1.4579299232732770e-03  1.3235840018426378e-03  7.8645811368990501e-02  7.7703218375408653e-02  7.4942929669933891e-02  7.0559443458276055e-02  6.4851506144543103e-02  5.8188358487035220e-02  5.0970283386438379e-02  4.3589303774620024e-02  3.6395313372421252e-02  2.9671473414449746e-02  2.3620766851613201e-02  1.8363619103364478e-02  1.3944865024572754e-02  1.0347317748232894e-02  7.5088531860114192e-03  5.3401816237286480e-03  3.7411453867993386e-03  2.6142285702788516e-03  1.8747798405685653e-03  1.4580793160338019e-03  1.3237465560834349e-03  7.8645923907474380e-02  7.7703319473717863e-02  7.4943009981197989e-02  7.0559496157060600e-02  6.4851527957012184e-02  5.8188350261403468e-02  5.0970250040529241e-02  4.3589253550882633e-02  3.6395256477733125e-02  2.9671420283397899e-02  2.3620726390408880e-02  1.8363597297737559e-02  1.3944864211377243e-02  1.0347336680653534e-02  7.5088878212866538e-03  5.3402263937736318e-03  3.7411946230821720e-03  2.6142777596217899e-03  1.8748264701961722e-03  1.4581231858946759e-03  1.3237895541763317e-03  7.8645918321808589e-02  7.7703311580445023e-02  7.4942999452539072e-02  7.0559483183291097e-02  6.4851513300376931e-02  5.8188335200348038e-02  5.0970236197411159e-02  4.3589242622734892e-02  3.6395249917907095e-02  2.9671419002744795e-02  2.3620730550689431e-02  1.8363606252450981e-02  1.3944876613381207e-02  1.0347350732663126e-02  7.5089016090472823e-03  5.3402382244865237e-03  3.7412032982321029e-03  2.6142827373413446e-03  1.8748279064884604e-03  1.4581218733628846e-03  1.3237867918441250e-03  7.8645914718416088e-02  7.7703307734656682e-02  7.4942995577325228e-02  7.0559479544443138e-02  6.4851510187263456e-02  5.8188332885279824e-02  5.0970234888812027e-02  4.3589242420671796e-02  3.6395250782515737e-02  2.9671420745380529e-02  2.3620732853551034e-02  1.8363608715520643e-02  1.3944878819718173e-02  1.0347352317101722e-02  7.5089023136187720e-03  5.3402379274507181e-03  3.7412020115416881e-03  2.6142805770368702e-03  1.8748250485890552e-03  1.4581185114865777e-03  1.3237831108300964e-03  7.8645912757369249e-02  7.7703305872631259e-02  7.4942994068712271e-02  7.0559478572154444e-02  6.4851509848720665e-02  5.8188333189334369e-02  5.0970235762685188e-02  4.3589243725639201e-02  3.6395252336589509e-02  2.9671422350498289e-02  2.3620734323873294e-02  1.8363609902738911e-02  1.3944879631256039e-02  1.0347352724061730e-02  7.5089023472355559e-03  5.3402376651966229e-03  3.7412015561909592e-03  2.6142800332709473e-03  1.8748245017872038e-03  1.4581180123165993e-03  1.3237826676256097e-03  7.8645893450581345e-02  7.7703287940579180e-02  7.4942978152321635e-02  7.0559465075643410e-02  6.4851498990719889e-02  5.8188325045387172e-02  5.0970230290868300e-02  4.3589240776416092e-02  3.6395251655235994e-02  2.9671423583235729e-02  2.3620737036643229e-02  1.8363613615776979e-02  1.3944883865940073e-02  1.0347357053538920e-02  7.5089064405468942e-03  5.3402413159538984e-03  3.7412046901483431e-03  2.6142826929352108e-03  1.8748268096029606e-03  1.4581201168222464e-03  1.3237846797074502e-03  7.8645863148092007e-02  7.7703261153306613e-02  7.4942950933083674e-02  7.0559434077796357e-02  6.4851462147647601e-02  5.8188281924381031e-02  5.0970182077924767e-02  4.3589189925740707e-02  3.6395201309937598e-02  2.9671376919338809e-02  2.3620696686264989e-02  1.8363581287226961e-02  1.3944860213226044e-02  1.0347341777448249e-02  7.5088985486843297e-03  5.3402394421063273e-03  3.7412073759941549e-03  2.6142885611454302e-03  1.8748345966402820e-03  1.4581285760660620e-03  1.3237924027548423e-03  7.8646201551100844e-02  7.7703589958819541e-02  7.4943228490556027e-02  7.0559626107423321e-02  6.4851545577756367e-02  5.8188247216859057e-02  5.0970033643612904e-02  4.3588944519004594e-02  3.6394884698100330e-02  2.9671019499101784e-02  2.3620328924167974e-02  1.8363229826087558e-02  1.3944545236530289e-02  1.0347075855134884e-02  7.5086868218353165e-03  5.3400807411457495e-03  3.7410957591945231e-03  2.6142148067610916e-03  1.8747873421036654e-03  1.4580950108258317e-03  1.3237586255887455e-03  7.8648782570978834e-02  7.7706079751449011e-02  7.4945445225579013e-02  7.0561412933307796e-02  6.4852784067906996e-02  5.8188869136748471e-02  5.0970028081085271e-02  4.3588357826412190e-02  3.6393812364671055e-02  2.9669591194171091e-02  2.3618689664732354e-02  1.8361520961061625e-02  1.3942888584060890e-02  1.0345563149209681e-02  7.5073751058232479e-03  5.3389929826105267e-03  3.7402250975483928e-03  2.6135306105052763e-03  1.8742415687945302e-03  1.4576280156874725e-03  1.3233042858450145e-03  7.8658366380273320e-02  7.7715386363281430e-02  7.4954022423729783e-02  7.0568818507656547e-02  6.4858615636636446e-02  5.8192813193500316e-02  5.0971910518836906e-02  4.3588177616829579e-02  3.6391746569445334e-02  2.9665969060193368e-02  2.3613942384974131e-02  1.8356119170522229e-02  1.3937280869901926e-02  1.0340126363889755e-02  7.5023826165852257e-03  5.3346019647710552e-03  3.7364800445175996e-03  2.6103781781575660e-03  1.8715517438184863e-03  1.4552178496059164e-03  1.3209621920134580e-03  7.8680388883850094e-02  7.7737174339049614e-02  7.4975194504927040e-02  7.0588647498516635e-02  6.4876077793490070e-02  5.8206787903120595e-02  5.0981432964696843e-02  4.3592656565580437e-02  3.6391089691433835e-02  2.9660595038697384e-02  2.3604691838615424e-02  1.8344098277639016e-02  1.3923679970389175e-02  1.0326052090900466e-02  7.4887303679495171e-03  5.3219808832713966e-03  3.7251896902449123e-03  2.6004276454912063e-03  1.8627089191235186e-03  1.4470776767634462e-03  1.3130255506908235e-03  7.8706647874958485e-02  7.7765450435268280e-02  7.5007839315635150e-02  7.0625406032236951e-02  6.4914528402207072e-02  5.8243296058823182e-02  5.1012192047662532e-02  4.3614554858699410e-02  3.6402264079172561e-02  2.9660631545741500e-02  2.3594511852279156e-02  1.8325621185993478e-02  1.3899374476978041e-02  1.0298482078897411e-02  7.4601749524387181e-03  5.2941732665479219e-03  3.6991864034820409e-03  2.5765965831001489e-03  1.8408146543676522e-03  1.4264440802772718e-03  1.2927606628339529e-03  7.8671201324035628e-02  7.7749491855352293e-02  7.5024580588241255e-02  7.0673783499425546e-02  6.4985728157099271e-02  5.8325188588581975e-02  5.1092473611507344e-02  4.3682891319095536e-02  3.6451541058052643e-02  2.9687392990830168e-02  2.3598720761505067e-02  1.8309936435290830e-02  1.3868169129318203e-02  1.0256818066010387e-02  7.4129020937828000e-03  5.2452540491568595e-03  3.6512827209264657e-03  2.5309106333524013e-03  1.7971708624616824e-03  1.3836502579280330e-03  1.2494214524966891e-03  7.8211504573757321e-02  7.7539242976596506e-02  7.4986396878438361e-02  7.0751498581711911e-02  6.5134741809853625e-02  5.8508558041396617e-02  5.1280014345512985e-02  4.3851505284928850e-02  3.6585654908182587e-02  2.9778900312775743e-02  2.3646220733087132e-02  1.8317346944632718e-02  1.3842958618980104e-02  1.0208151644174920e-02  7.3499538860582235e-03  5.1758300937237572e-03  3.5807585574127092e-03  2.4613370641257204e-03  1.7262435901714639e-03  1.3030516369813194e-03  1.1417677787463748e-03  </DataArray> 
</PointData> 
</Piece>
</UnstructuredGrid>
</VTKFile>