<?xml version="1.0"?>
<VTKFile type="UnstructuredGrid"  version="0.1"  >
<UnstructuredGrid>
<Piece  NumberOfPoints="441" NumberOfCells="800">
<Points>
<DataArray  type="Float64"  NumberOfComponents="3"  format="ascii">-2 -2 0  -1.8 -2 0  -1.6 -2 0  -1.4 -2 0  -1.2 -2 0  -1 -2 0  -0.8 -2 0  -0.6000000000000001 -2 0  -0.3999999999999999 -2 0  -0.2 -2 0  0 -2 0  0.2000000000000002 -2 0  0.3999999999999999 -2 0  0.6000000000000001 -2 0  0.7999999999999998 -2 0  1 -2 0  1.2 -2 0  1.4 -2 0  1.6 -2 0  1.8 -2 0  2 -2 0  -2 -1.8 0  -1.8 -1.8 0  -1.6 -1.8 0  -1.4 -1.8 0  -1.2 -1.8 0  -1 -1.8 0  -0.8 -1.8 0  -0.6000000000000001 -1.8 0  -0.3999999999999999 -1.8 0  -0.2 -1.8 0  0 -1.8 0  0.2000000000000002 -1.8 0  0.3999999999999999 -1.8 0  0.6000000000000001 -1.8 0  0.7999999999999998 -1.8 0  1 -1.8 0  1.2 -1.8 0  1.4 -1.8 0  1.6 -1.8 0  1.8 -1.8 0  2 -1.8 0  -2 -1.6 0  -1.8 -1.6 0  -1.6 -1.6 0  -1.4 -1.6 0  -1.2 -1.6 0  -1 -1.6 0  -0.8 -1.6 0  -0.6000000000000001 -1.6 0  -0.3999999999999999 -1.6 0  -0.2 -1.6 0  0 -1.6 0  0.2000000000000002 -1.6 0  0.3999999999999999 -1.6 0  0.6000000000000001 -1.6 0  0.7999999999999998 -1.6 0  1 -1.6 0  1.2 -1.6 0  1.4 -1.6 0  1.6 -1.6 0  1.8 -1.6 0  2 -1.6 0  -2 -1.4 0  -1.8 -1.4 0  -1.6 -1.4 0  -1.4 -1.4 0  -1.2 -1.4 0  -1 -1.4 0  -0.8 -1.4 0  -0.6000000000000001 -1.4 0  -0.3999999999999999 -1.4 0  -0.2 -1.4 0  0 -1.4 0  0.2000000000000002 -1.4 0  0.3999999999999999 -1.4 0  0.6000000000000001 -1.4 0  0.7999999999999998 -1.4 0  1 -1.4 0  1.2 -1.4 0  1.4 -1.4 0  1.6 -1.4 0  1.8 -1.4 0  2 -1.4 0  -2 -1.2 0  -1.8 -1.2 0  -1.6 -1.2 0  -1.4 -1.2 0  -1.2 -1.2 0  -1 -1.2 0  -0.8 -1.2 0  -0.6000000000000001 -1.2 0  -0.3999999999999999 -1.2 0  -0.2 -1.2 0  0 -1.2 0  0.2000000000000002 -1.2 0  0.3999999999999999 -1.2 0  0.6000000000000001 -1.2 0  0.7999999999999998 -1.2 0  1 -1.2 0  1.2 -1.2 0  1.4 -1.2 0  1.6 -1.2 0  1.8 -1.2 0  2 -1.2 0  -2 -1 0  -1.8 -1 0  -1.6 -1 0  -1.4 -1 0  -1.2 -1 0  -1 -1 0  -0.8 -1 0  -0.6000000000000001 -1 0  -0.3999999999999999 -1 0  -0.2 -1 0  0 -1 0  0.2000000000000002 -1 0  0.3999999999999999 -1 0  0.6000000000000001 -1 0  0.7999999999999998 -1 0  1 -1 0  1.2 -1 0  1.4 -1 0  1.6 -1 0  1.8 -1 0  2 -1 0  -2 -0.8 0  -1.8 -0.8 0  -1.6 -0.8 0  -1.4 -0.8 0  -1.2 -0.8 0  -1 -0.8 0  -0.8 -0.8 0  -0.6000000000000001 -0.8 0  -0.3999999999999999 -0.8 0  -0.2 -0.8 0  0 -0.8 0  0.2000000000000002 -0.8 0  0.3999999999999999 -0.8 0  0.6000000000000001 -0.8 0  0.7999999999999998 -0.8 0  1 -0.8 0  1.2 -0.8 0  1.4 -0.8 0  1.6 -0.8 0  1.8 -0.8 0  2 -0.8 0  -2 -0.6000000000000001 0  -1.8 -0.6000000000000001 0  -1.6 -0.6000000000000001 0  -1.4 -0.6000000000000001 0  -1.2 -0.6000000000000001 0  -1 -0.6000000000000001 0  -0.8 -0.6000000000000001 0  -0.6000000000000001 -0.6000000000000001 0  -0.3999999999999999 -0.6000000000000001 0  -0.2 -0.6000000000000001 0  0 -0.6000000000000001 0  0.2000000000000002 -0.6000000000000001 0  0.3999999999999999 -0.6000000000000001 0  0.6000000000000001 -0.6000000000000001 0  0.7999999999999998 -0.6000000000000001 0  1 -0.6000000000000001 0  1.2 -0.6000000000000001 0  1.4 -0.6000000000000001 0  1.6 -0.6000000000000001 0  1.8 -0.6000000000000001 0  2 -0.6000000000000001 0  -2 -0.3999999999999999 0  -1.8 -0.3999999999999999 0  -1.6 -0.3999999999999999 0  -1.4 -0.3999999999999999 0  -1.2 -0.3999999999999999 0  -1 -0.3999999999999999 0  -0.8 -0.3999999999999999 0  -0.6000000000000001 -0.3999999999999999 0  -0.3999999999999999 -0.3999999999999999 0  -0.2 -0.3999999999999999 0  0 -0.3999999999999999 0  0.2000000000000002 -0.3999999999999999 0  0.3999999999999999 -0.3999999999999999 0  0.6000000000000001 -0.3999999999999999 0  0.7999999999999998 -0.3999999999999999 0  1 -0.3999999999999999 0  1.2 -0.3999999999999999 0  1.4 -0.3999999999999999 0  1.6 -0.3999999999999999 0  1.8 -0.3999999999999999 0  2 -0.3999999999999999 0  -2 -0.2 0  -1.8 -0.2 0  -1.6 -0.2 0  -1.4 -0.2 0  -1.2 -0.2 0  -1 -0.2 0  -0.8 -0.2 0  -0.6000000000000001 -0.2 0  -0.3999999999999999 -0.2 0  -0.2 -0.2 0  0 -0.2 0  0.2000000000000002 -0.2 0  0.3999999999999999 -0.2 0  0.6000000000000001 -0.2 0  0.7999999999999998 -0.2 0  1 -0.2 0  1.2 -0.2 0  1.4 -0.2 0  1.6 -0.2 0  1.8 -0.2 0  2 -0.2 0  -2 0 0  -1.8 0 0  -1.6 0 0  -1.4 0 0  -1.2 0 0  -1 0 0  -0.8 0 0  -0.6000000000000001 0 0  -0.3999999999999999 0 0  -0.2 0 0  0 0 0  0.2000000000000002 0 0  0.3999999999999999 0 0  0.6000000000000001 0 0  0.7999999999999998 0 0  1 0 0  1.2 0 0  1.4 0 0  1.6 0 0  1.8 0 0  2 0 0  -2 0.2000000000000002 0  -1.8 0.2000000000000002 0  -1.6 0.2000000000000002 0  -1.4 0.2000000000000002 0  -1.2 0.2000000000000002 0  -1 0.2000000000000002 0  -0.8 0.2000000000000002 0  -0.6000000000000001 0.2000000000000002 0  -0.3999999999999999 0.2000000000000002 0  -0.2 0.2000000000000002 0  0 0.2000000000000002 0  0.2000000000000002 0.2000000000000002 0  0.3999999999999999 0.2000000000000002 0  0.6000000000000001 0.2000000000000002 0  0.7999999999999998 0.2000000000000002 0  1 0.2000000000000002 0  1.2 0.2000000000000002 0  1.4 0.2000000000000002 0  1.6 0.2000000000000002 0  1.8 0.2000000000000002 0  2 0.2000000000000002 0  -2 0.3999999999999999 0  -1.8 0.3999999999999999 0  -1.6 0.3999999999999999 0  -1.4 0.3999999999999999 0  -1.2 0.3999999999999999 0  -1 0.3999999999999999 0  -0.8 0.3999999999999999 0  -0.6000000000000001 0.3999999999999999 0  -0.3999999999999999 0.3999999999999999 0  -0.2 0.3999999999999999 0  0 0.3999999999999999 0  0.2000000000000002 0.3999999999999999 0  0.3999999999999999 0.3999999999999999 0  0.6000000000000001 0.3999999999999999 0  0.7999999999999998 0.3999999999999999 0  1 0.3999999999999999 0  1.2 0.3999999999999999 0  1.4 0.3999999999999999 0  1.6 0.3999999999999999 0  1.8 0.3999999999999999 0  2 0.3999999999999999 0  -2 0.6000000000000001 0  -1.8 0.6000000000000001 0  -1.6 0.6000000000000001 0  -1.4 0.6000000000000001 0  -1.2 0.6000000000000001 0  -1 0.6000000000000001 0  -0.8 0.6000000000000001 0  -0.6000000000000001 0.6000000000000001 0  -0.3999999999999999 0.6000000000000001 0  -0.2 0.6000000000000001 0  0 0.6000000000000001 0  0.2000000000000002 0.6000000000000001 0  0.3999999999999999 0.6000000000000001 0  0.6000000000000001 0.6000000000000001 0  0.7999999999999998 0.6000000000000001 0  1 0.6000000000000001 0  1.2 0.6000000000000001 0  1.4 0.6000000000000001 0  1.6 0.6000000000000001 0  1.8 0.6000000000000001 0  2 0.6000000000000001 0  -2 0.7999999999999998 0  -1.8 0.7999999999999998 0  -1.6 0.7999999999999998 0  -1.4 0.7999999999999998 0  -1.2 0.7999999999999998 0  -1 0.7999999999999998 0  -0.8 0.7999999999999998 0  -0.6000000000000001 0.7999999999999998 0  -0.3999999999999999 0.7999999999999998 0  -0.2 0.7999999999999998 0  0 0.7999999999999998 0  0.2000000000000002 0.7999999999999998 0  0.3999999999999999 0.7999999999999998 0  0.6000000000000001 0.7999999999999998 0  0.7999999999999998 0.7999999999999998 0  1 0.7999999999999998 0  1.2 0.7999999999999998 0  1.4 0.7999999999999998 0  1.6 0.7999999999999998 0  1.8 0.7999999999999998 0  2 0.7999999999999998 0  -2 1 0  -1.8 1 0  -1.6 1 0  -1.4 1 0  -1.2 1 0  -1 1 0  -0.8 1 0  -0.6000000000000001 1 0  -0.3999999999999999 1 0  -0.2 1 0  0 1 0  0.2000000000000002 1 0  0.3999999999999999 1 0  0.6000000000000001 1 0  0.7999999999999998 1 0  1 1 0  1.2 1 0  1.4 1 0  1.6 1 0  1.8 1 0  2 1 0  -2 1.2 0  -1.8 1.2 0  -1.6 1.2 0  -1.4 1.2 0  -1.2 1.2 0  -1 1.2 0  -0.8 1.2 0  -0.6000000000000001 1.2 0  -0.3999999999999999 1.2 0  -0.2 1.2 0  0 1.2 0  0.2000000000000002 1.2 0  0.3999999999999999 1.2 0  0.6000000000000001 1.2 0  0.7999999999999998 1.2 0  1 1.2 0  1.2 1.2 0  1.4 1.2 0  1.6 1.2 0  1.8 1.2 0  2 1.2 0  -2 1.4 0  -1.8 1.4 0  -1.6 1.4 0  -1.4 1.4 0  -1.2 1.4 0  -1 1.4 0  -0.8 1.4 0  -0.6000000000000001 1.4 0  -0.3999999999999999 1.4 0  -0.2 1.4 0  0 1.4 0  0.2000000000000002 1.4 0  0.3999999999999999 1.4 0  0.6000000000000001 1.4 0  0.7999999999999998 1.4 0  1 1.4 0  1.2 1.4 0  1.4 1.4 0  1.6 1.4 0  1.8 1.4 0  2 1.4 0  -2 1.6 0  -1.8 1.6 0  -1.6 1.6 0  -1.4 1.6 0  -1.2 1.6 0  -1 1.6 0  -0.8 1.6 0  -0.6000000000000001 1.6 0  -0.3999999999999999 1.6 0  -0.2 1.6 0  0 1.6 0  0.2000000000000002 1.6 0  0.3999999999999999 1.6 0  0.6000000000000001 1.6 0  0.7999999999999998 1.6 0  1 1.6 0  1.2 1.6 0  1.4 1.6 0  1.6 1.6 0  1.8 1.6 0  2 1.6 0  -2 1.8 0  -1.8 1.8 0  -1.6 1.8 0  -1.4 1.8 0  -1.2 1.8 0  -1 1.8 0  -0.8 1.8 0  -0.6000000000000001 1.8 0  -0.3999999999999999 1.8 0  -0.2 1.8 0  0 1.8 0  0.2000000000000002 1.8 0  0.3999999999999999 1.8 0  0.6000000000000001 1.8 0  0.7999999999999998 1.8 0  1 1.8 0  1.2 1.8 0  1.4 1.8 0  1.6 1.8 0  1.8 1.8 0  2 1.8 0  -2 2 0  -1.8 2 0  -1.6 2 0  -1.4 2 0  -1.2 2 0  -1 2 0  -0.8 2 0  -0.6000000000000001 2 0  -0.3999999999999999 2 0  -0.2 2 0  0 2 0  0.2000000000000002 2 0  0.3999999999999999 2 0  0.6000000000000001 2 0  0.7999999999999998 2 0  1 2 0  1.2 2 0  1.4 2 0  1.6 2 0  1.8 2 0  2 2 0  </DataArray>
</Points>
<Cells>
[...]
<PointData  Scalars="f_8"> 
<DataArray  type="Float64"  Name="f_8"  format="ascii">1.0644984998004450e-01  1.0349832253035415e-01  9.6461014925642879e-02  8.6182979774187457e-02  7.3836352096626437e-02  6.0686522315797360e-02  4.7877128991884593e-02  3.6278908959811881e-02  2.6422701780885693e-02  1.8511027645713451e-02  1.2484530807602128e-02  8.1130436062069409e-03  5.0847548719147699e-03  3.0765339129984674e-03  1.7989989876657339e-03  1.0180292172012352e-03  5.5880402955573458e-04  2.9950801786302500e-04  1.6079160012683966e-04  9.5223784328743493e-05  7.9235990780486038e-05  1.0548634391035300e-01  1.0316757477707532e-01  9.6564527585824372e-02  8.6542955055193660e-02  7.4296320331129193e-02  6.1122467214755651e-02  4.8207432567760153e-02  3.6466707861851078e-02  2.6469528719682906e-02  1.8444444221191219e-02  1.2344047384866693e-02  7.9381462351452055e-03  4.9071879668630136e-03  2.9171379629408410e-03  1.6680907954293488e-03  9.1778222604598013e-04  4.8619939689837548e-04  2.4886951882053995e-04  1.2538763615086072e-04  6.7722975954224052e-05  5.0853943379810890e-05  1.0545950281594653e-01  1.0318388787059626e-01  9.6654043268918369e-02  8.6689890049476512e-02  7.4462693516018294e-02  6.1267469209965515e-02  4.8300874720683604e-02  3.6495346214193689e-02  2.6436740961195752e-02  1.8365347385357798e-02  1.2238855215687544e-02  7.8262236132011307e-03  4.8032379076015184e-03  2.8298152563086018e-03  1.6005117011431418e-03  8.6905743365480522e-04  4.5318231692310115e-04  2.2759173159162991e-04  1.1196311642605762e-04  5.8734654304170391e-05  4.3371259296956291e-05  1.0551597447889620e-01  1.0324374295887087e-01  9.6719311851128864e-02  8.6755846950546972e-02  7.4519870087208465e-02  6.1305923457784184e-02  4.8314165265487825e-02  3.6482620841593934e-02  2.6402526072787477e-02  1.8317616985003945e-02  1.2186453242157589e-02  7.7766550690453445e-03  4.7614182871444904e-03  2.7978584650256754e-03  1.5782706245513450e-03  8.5499705018172523e-04  4.4522462628480877e-04  2.2372506819246069e-04  1.1056094693144128e-04  5.8627435973639500e-05  4.3750226273143248e-05  1.0554308940237170e-01  1.0327055451662656e-01  9.6744278249951673e-02  8.6776808117225282e-02  7.4534438564840891e-02  6.1312307980433800e-02  4.8311927352589823e-02  3.6472950912430330e-02  2.6387919004564227e-02  1.8301128681929110e-02  1.2170876928191982e-02  7.7639253535417970e-03  4.7523932851090741e-03  2.7924512948511379e-03  1.5757862796292952e-03  8.5450758545482601e-04  4.4586247439202880e-04  2.2484656662947493e-04  1.1179172536972600e-04  5.9830567618722100e-05  4.4958547120108142e-05  1.0554906729292285e-01  1.0327624518074061e-01  9.6749113880152199e-02  8.6780254010396421e-02  7.4536105609036049e-02  6.1312090202423786e-02  4.8310083809297640e-02  3.6470068172851373e-02  2.6384753204907595e-02  1.8298390258747174e-02  1.2169047073245804e-02  7.7631705737748287e-03  4.7525929161990124e-03  2.7933043064120250e-03  1.5769411944702898e-03  8.5566651762777597e-04  4.4683522279872763e-04  2.2555688519322660e-04  1.1225399246947481e-04  6.0118342229139168e-05  4.5180462561358423e-05  1.0554941703987905e-01  1.0327650546174993e-01  9.6749216709420938e-02  8.6780158420858483e-02  7.4535814790084601e-02  6.1311662072593157e-02  4.8309624999759639e-02  3.6469707285521534e-02  2.6384600781012270e-02  1.8298502020707829e-02  1.2169406897274344e-02  7.7637000999781396e-03  4.7531818301559843e-03  2.7938467654005919e-03  1.5773636148065384e-03  8.5593854957131509e-04  4.4696440542615521e-04  2.2557360611535641e-04  1.1219504286526431e-04  6.0015422267845257e-05  4.5056640732801048e-05  1.0554931094497931e-01  1.0327638557506764e-01  9.6749088579324044e-02  8.6780032345115526e-02  7.4535705459499127e-02  6.1311586459143044e-02  4.8309598146496761e-02  3.6469736851630158e-02  2.6384682562156460e-02  1.8298619015206630e-02  1.2169533176067846e-02  7.7638083575805247e-03  4.7532515259429637e-03  2.7938694650071296e-03  1.5773436319642569e-03  8.5588926230030439e-04  4.4690234232392723e-04  2.2551279470555872e-04  1.1214331636365847e-04  5.9973141712300860e-05  4.5017390618671733e-05  1.0554930102856386e-01  1.0327637606967771e-01  9.6749081207380405e-02  8.6780028904497070e-02  7.4535707352847785e-02  6.1311594129577887e-02  4.8309610567990179e-02  3.6469751322341190e-02  2.6384695060207131e-02  1.8298625199324424e-02  1.2169529778728084e-02  7.7637944199205680e-03  4.7532288920299941e-03  2.7938422621597413e-03  1.5773169502493348e-03  8.5586761795163773e-04  4.4688855375273279e-04  2.2550761852779475e-04  1.1214577420747506e-04  5.9981150044230588e-05  4.5028227802589661e-05  1.0554930407931513e-01  1.0327637953999814e-01  9.6749084984277686e-02  8.6780032777592886e-02  7.4535710995357482e-02  6.1311597107084392e-02  4.8309612392933902e-02  3.6469751564328974e-02  2.6384693499393635e-02  1.8298621975230581e-02  1.2169525459831557e-02  7.7637899281818405e-03  4.7532252729385032e-03  2.7938403717607274e-03  1.5773171871433891e-03  8.5586982044852508e-04  4.4689211040910959e-04  2.2551174526890425e-04  1.1214984453971292e-04  5.9984952924923981e-05  4.5032060058548418e-05  1.0554930411300473e-01  1.0327637956959683e-01  9.6749084986316874e-02  8.6780032719384656e-02  7.4535710844872233e-02  6.1311596846636583e-02  4.8309612034290378e-02  3.6469751160739500e-02  2.6384693148132264e-02  1.8298621804216771e-02  1.2169525595883315e-02  7.7637904528634321e-03  4.7532261814216062e-03  2.7938415541568563e-03  1.5773184453218047e-03  8.5587091783433837e-04  4.4689283625117237e-04  2.2551196876214504e-04  1.1214954245941051e-04  5.9984211768305522e-05  4.5031068016029200e-05  1.0554930356806654e-01  1.0327637908885241e-01  9.6749084574921679e-02  8.6780032391502851e-02  7.4535710620680942e-02  6.1311596745396026e-02  4.8309612066601906e-02  3.6469751322633824e-02  2.6384693418519164e-02  1.8298622145989315e-02  1.2169525960175379e-02  7.7637907858117156e-03  4.7532264328621395e-03  2.7938416872805155e-03  1.5773184451914903e-03  8.5587079554943178e-04  4.4689262568846827e-04  2.2551171495250100e-04  1.1214928422042614e-04  5.9983964627284840e-05  4.5030815093250938e-05  1.0554930654518388e-01  1.0327638150932011e-01  9.6749086147548485e-02  8.6780033009932020e-02  7.4535710340761466e-02  6.1311595751462715e-02  4.8309610625325704e-02  3.6469749726990700e-02  2.6384691930799613e-02  1.8298620952689550e-02  1.2169525149837730e-02  7.7637903537178862e-03  4.7532263074346855e-03  2.7938417665627603e-03  1.5773186305850877e-03  8.5587101380495828e-04  4.4689283633419212e-04  2.2551190578333415e-04  1.1214946021278216e-04  5.9984135558169968e-05  4.5030985407055644e-05  1.0554931924046540e-01  1.0327639247337625e-01  9.6749096169047116e-02  8.6780042285069220e-02  7.4535718489025668e-02  6.1311602063852270e-02  4.8309614413372143e-02  3.6469750631355331e-02  2.6384690083648986e-02  1.8298616954470531e-02  1.2169519894106137e-02  7.7637847846142279e-03  4.7532212040971127e-03  2.7938376189117586e-03  1.5773156220876771e-03  8.5586908472053678e-04  4.4689178179422695e-04  2.2551146787048960e-04  1.1214939186091480e-04  5.9984233730255941e-05  4.5031102672317828e-05  1.0554918795614511e-01  1.0327627693076842e-01  9.6749009746303460e-02  8.6779992017107635e-02  7.4535705171278069e-02  6.1311621096133403e-02  4.8309657247520087e-02  3.6469806686512646e-02  2.6384748864316562e-02  1.8298669938584623e-02  1.2169561734634937e-02  7.7638135710469437e-03  4.7532378629042112e-03  2.7938448077706552e-03  1.5773165602214593e-03  8.5586665959732733e-04  4.4688807719101323e-04  2.2550768117232580e-04  1.1214601129010803e-04  5.9981328442713694e-05  4.5028603997490989e-05  1.0554856444762281e-01  1.0327571184575098e-01  9.6748498168438071e-02  8.6779534360552940e-02  7.4535311992853778e-02  6.1311311258311775e-02  4.8309450027760555e-02  3.6469711936464255e-02  2.6384760474300942e-02  1.8298765781544817e-02  1.2169709607061244e-02  7.7639798607286653e-03  4.7533951236807519e-03  2.7939758194379847e-03  1.5774145261991483e-03  8.5593274518721641e-04  4.4692800914225962e-04  2.2552878607425475e-04  1.1215534357725980e-04  5.9984851461733904e-05  4.5030955129795439e-05  1.0555068310653050e-01  1.0327764632530069e-01  9.6749793010001556e-02  8.6779866965672109e-02  7.4534562313987016e-02  6.1309591955261991e-02  4.8307069158891540e-02  3.6467076797829345e-02  2.6382261549670535e-02  1.8296685270279965e-02  1.2168181277590603e-02  7.7630008053704838e-03  4.7528705517512447e-03  2.7937722887057810e-03  1.5774028568636220e-03  8.5601252397278483e-04  4.4703480995426383e-04  2.2562997507530710e-04  1.1224074771247306e-04  6.0056472944947706e-05  4.5093318535708400e-05  1.0557374629856991e-01  1.0329948032629882e-01  9.6768433661150843e-02  8.6793320380725236e-02  7.4541299034272174e-02  6.1309084889549434e-02  4.8300026083514060e-02  3.6455245216582978e-02  2.6367918808132225e-02  1.8282048705827506e-02  1.2154955569993709e-02  7.7521727528815712e-03  4.7447415256261123e-03  2.7881416226530681e-03  1.5737977021994156e-03  8.5388550490912891e-04  4.4589249392912691e-04  2.2509041497015722e-04  1.1203736774632455e-04  6.0009493395563278e-05  4.5065487266205395e-05  1.0564200272214351e-01  1.0336874543497473e-01  9.6837787818204749e-02  8.6856457022325514e-02  7.4589566604757268e-02  6.1335363456720214e-02  4.8301449011359278e-02  3.6433915391571231e-02  2.6329811423058735e-02  1.8234931510256569e-02  1.2106279405714694e-02  7.7076068692767674e-03  4.7075918293468817e-03  2.7595203392259712e-03  1.5532258076345383e-03  8.4000263626918660e-04  4.3705060240754363e-04  2.1973421437461454e-04  1.0887150380319752e-04  5.8001605319814580e-05  4.3346299669949657e-05  1.0565392596570077e-01  1.0342542159282898e-01  9.6959236531472232e-02  8.7022146310545875e-02  7.4761234608954494e-02  6.1475158409562726e-02  4.8383784770726704e-02  3.6450202521454540e-02  2.6286943629486019e-02  1.8149848972630164e-02  1.1999397654652202e-02  7.5973642676334194e-03  4.6072724456337052e-03  2.6764110446086198e-03  1.4894518817050526e-03  7.9415806477005552e-04  4.0587897659236316e-04  1.9941868701318422e-04  9.5782986330838848e-05  4.8942880991602227e-05  3.5406861250991449e-05  1.0470954804815784e-01  1.0310281152178596e-01  9.7071529658988534e-02  8.7397643187644453e-02  7.5243555885163349e-02  6.1935873121194515e-02  4.8735187705602936e-02  3.6650548461413301e-02  2.6335867046167468e-02  1.8076215075594350e-02  1.1846181561526694e-02  7.4081209357174348e-03  4.4170830707401850e-03  2.5080238477153301e-03  1.3536375552897580e-03  6.9251084524825661e-04  3.3434007530062644e-04  1.5132157643015239e-04  6.3831096487150700e-05  2.5965108064068950e-05  1.3883038771964069e-05  </DataArray> 
</PointData> 
</Piece>
</UnstructuredGrid>
</VTKFile>