<?xml version="1.0"?>
<VTKFile type="UnstructuredGrid"  version="0.1"  >
<UnstructuredGrid>
<Piece  NumberOfPoints="441" NumberOfCells="800">
<Points>
<DataArray  type="Float64"  NumberOfComponents="3"  format="ascii">-2 -2 0  -1.8 -2 0  -1.6 -2 0  -1.4 -2 0  -1.2 -2 0  -1 -2 0  -0.8 -2 0  -0.6000000000000001 -2 0  -0.3999999999999999 -2 0  -0.2 -2 0  0 -2 0  0.2000000000000002 -2 0  0.3999999999999999 -2 0  0.6000000000000001 -2 0  0.7999999999999998 -2 0  1 -2 0  1.2 -2 0  1.4 -2 0  1.6 -2 0  1.8 -2 0  2 -2 0  -2 -1.8 0  -1.8 -1.8 0  -1.6 -1.8 0  -1.4 -1.8 0  -1.2 -1.8 0  -1 -1.8 0  -0.8 -1.8 0  -0.6000000000000001 -1.8 0  -0.3999999999999999 -1.8 0  -0.2 -1.8 0  0 -1.8 0  0.2000000000000002 -1.8 0  0.3999999999999999 -1.8 0  0.6000000000000001 -1.8 0  0.7999999999999998 -1.8 0  1 -1.8 0  1.2 -1.8 0  1.4 -1.8 0  1.6 -1.8 0  1.8 -1.8 0  2 -1.8 0  -2 -1.6 0  -1.8 -1.6 0  -1.6 -1.6 0  -1.4 -1.6 0  -1.2 -1.6 0  -1 -1.6 0  -0.8 -1.6 0  -0.6000000000000001 -1.6 0  -0.3999999999999999 -1.6 0  -0.2 -1.6 0  0 -1.6 0  0.2000000000000002 -1.6 0  0.3999999999999999 -1.6 0  0.6000000000000001 -1.6 0  0.7999999999999998 -1.6 0  1 -1.6 0  1.2 -1.6 0  1.4 -1.6 0  1.6 -1.6 0  1.8 -1.6 0  2 -1.6 0  -2 -1.4 0  -1.8 -1.4 0  -1.6 -1.4 0  -1.4 -1.4 0  -1.2 -1.4 0  -1 -1.4 0  -0.8 -1.4 0  -0.6000000000000001 -1.4 0  -0.3999999999999999 -1.4 0  -0.2 -1.4 0  0 -1.4 0  0.2000000000000002 -1.4 0  0.3999999999999999 -1.4 0  0.6000000000000001 -1.4 0  0.7999999999999998 -1.4 0  1 -1.4 0  1.2 -1.4 0  1.4 -1.4 0  1.6 -1.4 0  1.8 -1.4 0  2 -1.4 0  -2 -1.2 0  -1.8 -1.2 0  -1.6 -1.2 0  -1.4 -1.2 0  -1.2 -1.2 0  -1 -1.2 0  -0.8 -1.2 0  -0.6000000000000001 -1.2 0  -0.3999999999999999 -1.2 0  -0.2 -1.2 0  0 -1.2 0  0.2000000000000002 -1.2 0  0.3999999999999999 -1.2 0  0.6000000000000001 -1.2 0  0.7999999999999998 -1.2 0  1 -1.2 0  1.2 -1.2 0  1.4 -1.2 0  1.6 -1.2 0  1.8 -1.2 0  2 -1.2 0  -2 -1 0  -1.8 -1 0  -1.6 -1 0  -1.4 -1 0  -1.2 -1 0  -1 -1 0  -0.8 -1 0  -0.6000000000000001 -1 0  -0.3999999999999999 -1 0  -0.2 -1 0  0 -1 0  0.2000000000000002 -1 0  0.3999999999999999 -1 0  0.6000000000000001 -1 0  0.7999999999999998 -1 0  1 -1 0  1.2 -1 0  1.4 -1 0  1.6 -1 0  1.8 -1 0  2 -1 0  -2 -0.8 0  -1.8 -0.8 0  -1.6 -0.8 0  -1.4 -0.8 0  -1.2 -0.8 0  -1 -0.8 0  -0.8 -0.8 0  -0.6000000000000001 -0.8 0  -0.3999999999999999 -0.8 0  -0.2 -0.8 0  0 -0.8 0  0.2000000000000002 -0.8 0  0.3999999999999999 -0.8 0  0.6000000000000001 -0.8 0  0.7999999999999998 -0.8 0  1 -0.8 0  1.2 -0.8 0  1.4 -0.8 0  1.6 -0.8 0  1.8 -0.8 0  2 -0.8 0  -2 -0.6000000000000001 0  -1.8 -0.6000000000000001 0  -1.6 -0.6000000000000001 0  -1.4 -0.6000000000000001 0  -1.2 -0.6000000000000001 0  -1 -0.6000000000000001 0  -0.8 -0.6000000000000001 0  -0.6000000000000001 -0.6000000000000001 0  -0.3999999999999999 -0.6000000000000001 0  -0.2 -0.6000000000000001 0  0 -0.6000000000000001 0  0.2000000000000002 -0.6000000000000001 0  0.3999999999999999 -0.6000000000000001 0  0.6000000000000001 -0.6000000000000001 0  0.7999999999999998 -0.6000000000000001 0  1 -0.6000000000000001 0  1.2 -0.6000000000000001 0  1.4 -0.6000000000000001 0  1.6 -0.6000000000000001 0  1.8 -0.6000000000000001 0  2 -0.6000000000000001 0  -2 -0.3999999999999999 0  -1.8 -0.3999999999999999 0  -1.6 -0.3999999999999999 0  -1.4 -0.3999999999999999 0  -1.2 -0.3999999999999999 0  -1 -0.3999999999999999 0  -0.8 -0.3999999999999999 0  -0.6000000000000001 -0.3999999999999999 0  -0.3999999999999999 -0.3999999999999999 0  -0.2 -0.3999999999999999 0  0 -0.3999999999999999 0  0.2000000000000002 -0.3999999999999999 0  0.3999999999999999 -0.3999999999999999 0  0.6000000000000001 -0.3999999999999999 0  0.7999999999999998 -0.3999999999999999 0  1 -0.3999999999999999 0  1.2 -0.3999999999999999 0  1.4 -0.3999999999999999 0  1.6 -0.3999999999999999 0  1.8 -0.3999999999999999 0  2 -0.3999999999999999 0  -2 -0.2 0  -1.8 -0.2 0  -1.6 -0.2 0  -1.4 -0.2 0  -1.2 -0.2 0  -1 -0.2 0  -0.8 -0.2 0  -0.6000000000000001 -0.2 0  -0.3999999999999999 -0.2 0  -0.2 -0.2 0  0 -0.2 0  0.2000000000000002 -0.2 0  0.3999999999999999 -0.2 0  0.6000000000000001 -0.2 0  0.7999999999999998 -0.2 0  1 -0.2 0  1.2 -0.2 0  1.4 -0.2 0  1.6 -0.2 0  1.8 -0.2 0  2 -0.2 0  -2 0 0  -1.8 0 0  -1.6 0 0  -1.4 0 0  -1.2 0 0  -1 0 0  -0.8 0 0  -0.6000000000000001 0 0  -0.3999999999999999 0 0  -0.2 0 0  0 0 0  0.2000000000000002 0 0  0.3999999999999999 0 0  0.6000000000000001 0 0  0.7999999999999998 0 0  1 0 0  1.2 0 0  1.4 0 0  1.6 0 0  1.8 0 0  2 0 0  -2 0.2000000000000002 0  -1.8 0.2000000000000002 0  -1.6 0.2000000000000002 0  -1.4 0.2000000000000002 0  -1.2 0.2000000000000002 0  -1 0.2000000000000002 0  -0.8 0.2000000000000002 0  -0.6000000000000001 0.2000000000000002 0  -0.3999999999999999 0.2000000000000002 0  -0.2 0.2000000000000002 0  0 0.2000000000000002 0  0.2000000000000002 0.2000000000000002 0  0.3999999999999999 0.2000000000000002 0  0.6000000000000001 0.2000000000000002 0  0.7999999999999998 0.2000000000000002 0  1 0.2000000000000002 0  1.2 0.2000000000000002 0  1.4 0.2000000000000002 0  1.6 0.2000000000000002 0  1.8 0.2000000000000002 0  2 0.2000000000000002 0  -2 0.3999999999999999 0  -1.8 0.3999999999999999 0  -1.6 0.3999999999999999 0  -1.4 0.3999999999999999 0  -1.2 0.3999999999999999 0  -1 0.3999999999999999 0  -0.8 0.3999999999999999 0  -0.6000000000000001 0.3999999999999999 0  -0.3999999999999999 0.3999999999999999 0  -0.2 0.3999999999999999 0  0 0.3999999999999999 0  0.2000000000000002 0.3999999999999999 0  0.3999999999999999 0.3999999999999999 0  0.6000000000000001 0.3999999999999999 0  0.7999999999999998 0.3999999999999999 0  1 0.3999999999999999 0  1.2 0.3999999999999999 0  1.4 0.3999999999999999 0  1.6 0.3999999999999999 0  1.8 0.3999999999999999 0  2 0.3999999999999999 0  -2 0.6000000000000001 0  -1.8 0.6000000000000001 0  -1.6 0.6000000000000001 0  -1.4 0.6000000000000001 0  -1.2 0.6000000000000001 0  -1 0.6000000000000001 0  -0.8 0.6000000000000001 0  -0.6000000000000001 0.6000000000000001 0  -0.3999999999999999 0.6000000000000001 0  -0.2 0.6000000000000001 0  0 0.6000000000000001 0  0.2000000000000002 0.6000000000000001 0  0.3999999999999999 0.6000000000000001 0  0.6000000000000001 0.6000000000000001 0  0.7999999999999998 0.6000000000000001 0  1 0.6000000000000001 0  1.2 0.6000000000000001 0  1.4 0.6000000000000001 0  1.6 0.6000000000000001 0  1.8 0.6000000000000001 0  2 0.6000000000000001 0  -2 0.7999999999999998 0  -1.8 0.7999999999999998 0  -1.6 0.7999999999999998 0  -1.4 0.7999999999999998 0  -1.2 0.7999999999999998 0  -1 0.7999999999999998 0  -0.8 0.7999999999999998 0  -0.6000000000000001 0.7999999999999998 0  -0.3999999999999999 0.7999999999999998 0  -0.2 0.7999999999999998 0  0 0.7999999999999998 0  0.2000000000000002 0.7999999999999998 0  0.3999999999999999 0.7999999999999998 0  0.6000000000000001 0.7999999999999998 0  0.7999999999999998 0.7999999999999998 0  1 0.7999999999999998 0  1.2 0.7999999999999998 0  1.4 0.7999999999999998 0  1.6 0.7999999999999998 0  1.8 0.7999999999999998 0  2 0.7999999999999998 0  -2 1 0  -1.8 1 0  -1.6 1 0  -1.4 1 0  -1.2 1 0  -1 1 0  -0.8 1 0  -0.6000000000000001 1 0  -0.3999999999999999 1 0  -0.2 1 0  0 1 0  0.2000000000000002 1 0  0.3999999999999999 1 0  0.6000000000000001 1 0  0.7999999999999998 1 0  1 1 0  1.2 1 0  1.4 1 0  1.6 1 0  1.8 1 0  2 1 0  -2 1.2 0  -1.8 1.2 0  -1.6 1.2 0  -1.4 1.2 0  -1.2 1.2 0  -1 1.2 0  -0.8 1.2 0  -0.6000000000000001 1.2 0  -0.3999999999999999 1.2 0  -0.2 1.2 0  0 1.2 0  0.2000000000000002 1.2 0  0.3999999999999999 1.2 0  0.6000000000000001 1.2 0  0.7999999999999998 1.2 0  1 1.2 0  1.2 1.2 0  1.4 1.2 0  1.6 1.2 0  1.8 1.2 0  2 1.2 0  -2 1.4 0  -1.8 1.4 0  -1.6 1.4 0  -1.4 1.4 0  -1.2 1.4 0  -1 1.4 0  -0.8 1.4 0  -0.6000000000000001 1.4 0  -0.3999999999999999 1.4 0  -0.2 1.4 0  0 1.4 0  0.2000000000000002 1.4 0  0.3999999999999999 1.4 0  0.6000000000000001 1.4 0  0.7999999999999998 1.4 0  1 1.4 0  1.2 1.4 0  1.4 1.4 0  1.6 1.4 0  1.8 1.4 0  2 1.4 0  -2 1.6 0  -1.8 1.6 0  -1.6 1.6 0  -1.4 1.6 0  -1.2 1.6 0  -1 1.6 0  -0.8 1.6 0  -0.6000000000000001 1.6 0  -0.3999999999999999 1.6 0  -0.2 1.6 0  0 1.6 0  0.2000000000000002 1.6 0  0.3999999999999999 1.6 0  0.6000000000000001 1.6 0  0.7999999999999998 1.6 0  1 1.6 0  1.2 1.6 0  1.4 1.6 0  1.6 1.6 0  1.8 1.6 0  2 1.6 0  -2 1.8 0  -1.8 1.8 0  -1.6 1.8 0  -1.4 1.8 0  -1.2 1.8 0  -1 1.8 0  -0.8 1.8 0  -0.6000000000000001 1.8 0  -0.3999999999999999 1.8 0  -0.2 1.8 0  0 1.8 0  0.2000000000000002 1.8 0  0.3999999999999999 1.8 0  0.6000000000000001 1.8 0  0.7999999999999998 1.8 0  1 1.8 0  1.2 1.8 0  1.4 1.8 0  1.6 1.8 0  1.8 1.8 0  2 1.8 0  -2 2 0  -1.8 2 0  -1.6 2 0  -1.4 2 0  -1.2 2 0  -1 2 0  -0.8 2 0  -0.6000000000000001 2 0  -0.3999999999999999 2 0  -0.2 2 0  0 2 0  0.2000000000000002 2 0  0.3999999999999999 2 0  0.6000000000000001 2 0  0.7999999999999998 2 0  1 2 0  1.2 2 0  1.4 2 0  1.6 2 0  1.8 2 0  2 2 0  </DataArray>
</Points>
<Cells>
[...]
<PointData  Scalars="f_8"> 
<DataArray  type="Float64"  Name="f_8"  format="ascii">9.9126129673904328e-02  9.6739663071186019e-02  9.1008253223599997e-02  8.2526995471493683e-02  7.2147173008794280e-02  6.0823810751438188e-02  4.9467287885609654e-02  3.8827440687888425e-02  2.9426831300283840e-02  2.1545628607153165e-02  1.5248599428852991e-02  1.0437984033967023e-02  6.9150847398989973e-03  4.4368522711495375e-03  2.7593280315307525e-03  1.6653349272712705e-03  9.7791921332905304e-04  5.6326737159816793e-04  3.2739919264703919e-04  2.1046147520057976e-04  1.8152995193153245e-04  9.8311936505805400e-02  9.6433363709421183e-02  9.1051801743120123e-02  8.2786546047485726e-02  7.2506898092439501e-02  6.1189455070138433e-02  4.9771627871569149e-02  3.9032857042032125e-02  2.9523184131500305e-02  2.1544016567648851e-02  1.5172961917712745e-02  1.0316792183171409e-02  6.7748302633526252e-03  4.2981286795585006e-03  2.6354258402239172e-03  1.5626980340436337e-03  8.9759439204640829e-04  5.0253694781361680e-04  2.8096714843418608e-04  1.7071653138017474e-04  1.3742019009674070e-04  9.8275223128775291e-02  9.6432012327312674e-02  9.1112056465355987e-02  8.2899438199368694e-02  7.2645396217598010e-02  6.1322053991527153e-02  4.9872154790999441e-02  3.9085968771461886e-02  2.9525635440676247e-02  2.1502610302877739e-02  1.5100645241496539e-02  1.0228424723414337e-02  6.6837771323032527e-03  4.2142446111313094e-03  2.5644383747105448e-03  1.5066286335689344e-03  8.5572127820244658e-04  4.7245546393889933e-04  2.5945691593035129e-04  1.5430505068709849e-04  1.2270739557111138e-04  9.8321816690839545e-02  9.6481739307525835e-02  9.1167597205055517e-02  8.2958006322325861e-02  7.2699951871882995e-02  6.1364265076717869e-02  4.9895425696920910e-02  3.9087428656674209e-02  2.9506639628962016e-02  2.1467915389656717e-02  1.5056810461827760e-02  1.0182095860334028e-02  6.6403669644894050e-03  4.1772552329431617e-03  2.5354064901133505e-03  1.4855030779168941e-03  8.4142761546715040e-04  4.6344010113082574e-04  2.5408520619164452e-04  1.5107101716194232e-04  1.2027182303348532e-04  9.8349049051511275e-02  9.6508790671575667e-02  9.1193297573159554e-02  8.2980602871727496e-02  7.2717335132091415e-02  6.1374572255249199e-02  4.9897687040159143e-02  3.9081946199712024e-02  2.9494948952265381e-02  2.1452375989438121e-02  1.5040008459509039e-02  1.0166279071155745e-02  6.6270759957586228e-03  4.1672111525079677e-03  2.5286184217060601e-03  1.4815026810382809e-03  8.3952945074218207e-04  4.6295359459863221e-04  2.5444322778949118e-04  1.5187354241256334e-04  1.2126193877208932e-04  9.8356934048891745e-02  9.6516412889475531e-02  9.1200060696817145e-02  8.2985923781176710e-02  7.2720732908492430e-02  6.1375790341727729e-02  4.9896790444266335e-02  3.9079337870536406e-02  2.9491285572597999e-02  2.1448409691865136e-02  1.5036411769908692e-02  1.0163512253442229e-02  6.6253324098599345e-03  4.1664424372176807e-03  2.5286139773538761e-03  1.4819867890808519e-03  8.4024446595881144e-04  4.6371210464363091e-04  2.5514729500189629e-04  1.5250905350238313e-04  1.2187878795487991e-04  9.8357985270081091e-02  9.6517365630977167e-02  9.1200798401182517e-02  8.2986356046545709e-02  7.2720815850001425e-02  6.1375542924149366e-02  4.9896297840344959e-02  3.9078735747221198e-02  2.9490727217355035e-02  2.1448026366192984e-02  1.5036280462124267e-02  1.0163641914939800e-02  6.6256717138227315e-03  4.1669035313620902e-03  2.5291017149032804e-03  1.4824231340325013e-03  8.4058199272575031e-04  4.6393600921541757e-04  2.5526952962641474e-04  1.5255979461357869e-04  1.2189956110872427e-04  9.8357936464234449e-02  9.6517295382812687e-02  9.1200702841598064e-02  8.2986237815656005e-02  7.2720685482596845e-02  6.1375418359613784e-02  4.9896201322382767e-02  3.9078688299564096e-02  2.9490742213728716e-02  2.1448104621232367e-02  1.5036409026603980e-02  1.0163797321231448e-02  6.6258265102503971e-03  4.1670335890014142e-03  2.5291916567250095e-03  1.4824682749478833e-03  8.4058674549874514e-04  4.6391001917244130e-04  2.5522336302498031e-04  1.5250179918431295e-04  1.2183485056883962e-04  9.8357907537587969e-02  9.6517264840009775e-02  9.1200673031645405e-02  8.2986211707655633e-02  7.2720666257095529e-02  6.1375408762324064e-02  4.9896202868293028e-02  3.9078700547276975e-02  2.9490762426481829e-02  2.1448128088509474e-02  1.5036430097316752e-02  1.0163810878970890e-02  6.6258293771594848e-03  4.1670253299431349e-03  2.5291744929672737e-03  1.4824461816420557e-03  8.4056410863696609e-04  4.6389032779475743e-04  2.5520830077845752e-04  1.5249087964583593e-04  1.2182555292963871e-04  9.8357908464081226e-02  9.6517266196065821e-02  9.1200675007827470e-02  8.2986214424286706e-02  7.2720669684871744e-02  6.1375412654199331e-02  4.9896206731925297e-02  3.9078703688446244e-02  2.9490764080272819e-02  2.1448127622953110e-02  1.5036427232992332e-02  1.0163805840567773e-02  6.6258229023371156e-03  4.1670185120337771e-03  2.5291685054418464e-03  1.4824419859113078e-03  8.4056225206357844e-04  4.6389089192647740e-04  2.5521098576058120e-04  1.5249514789122636e-04  1.2183073426424162e-04  9.8357909112917669e-02  9.6517266941246307e-02  9.1200675804138542e-02  8.2986215204037386e-02  7.2720670362786552e-02  6.1375413138423693e-02  4.9896206942046474e-02  3.9078703578899331e-02  2.9490763663811800e-02  2.1448126985328726e-02  1.5036426529049218e-02  1.0163805266038984e-02  6.6258226448134144e-03  4.1670186954385771e-03  2.5291691489461587e-03  1.4824429958274262e-03  8.4056345375268138e-04  4.6389209320804809e-04  2.5521205088666348e-04  1.5249605672719701e-04  1.2183160515212239e-04  9.8357909206128413e-02  9.6517266982681288e-02  9.1200675735521902e-02  8.2986215004743125e-02  7.2720670047047020e-02  6.1375412748089470e-02  4.9896206536345869e-02  3.9078703222615252e-02  2.9490763415347933e-02  2.1448126886131080e-02  1.5036426595757890e-02  1.0163805486617897e-02  6.6258229796767208e-03  4.1670190840057417e-03  2.5291695208906556e-03  1.4824432847348201e-03  8.4056360973371914e-04  4.6389209115705460e-04  2.5521189289746292e-04  1.5249576993263387e-04  1.2183123828223234e-04  9.8357914198639249e-02  9.6517271244255687e-02  9.1200679148724900e-02  8.2986217503857998e-02  7.2720671601755951e-02  6.1375413370971681e-02  4.9896206299418683e-02  3.9078702266886416e-02  2.9490761942902920e-02  2.1448125133494714e-02  1.5036424796028547e-02  1.0163803832607784e-02  6.6258215994014638e-03  4.1670180343450717e-03  2.5291687980493870e-03  1.4824428445984073e-03  8.4056338941667188e-04  4.6389202505406059e-04  2.5521192075713160e-04  1.5249583862544469e-04  1.2183130120858789e-04  9.8357903817453740e-02  9.6517261867790402e-02  9.1200673355094963e-02  8.2986216641091098e-02  7.2720675759511286e-02  6.1375421592965121e-02  4.9896216958862767e-02  3.9078713511087583e-02  2.9490772110091514e-02  2.1448133057337889e-02  1.5036429944842153e-02  1.0163806276937250e-02  6.6258218486233396e-03  4.1670168124229258e-03  2.5291668308060865e-03  1.4824407095061444e-03  8.4056144729178757e-04  4.6389042538878150e-04  2.5521065659830141e-04  1.5249482276176728e-04  1.2183043807569255e-04  9.8357706683654025e-02  9.6517083951779131e-02  9.1200523881458773e-02  8.2986101381756508e-02  7.2720597533125222e-02  6.1375380474540629e-02  4.9896210255729413e-02  3.9078735809820429e-02  2.9490815740951987e-02  2.1448189110455398e-02  1.5036489650284611e-02  1.0163862340569598e-02  6.6258693397983574e-03  4.1670533980217453e-03  2.5291924108325745e-03  1.4824566980620986e-03  8.4056999463640882e-04  4.6389380710386350e-04  2.5521092505996447e-04  1.5249368728870185e-04  1.2182925488670525e-04  9.8357514108570923e-02  9.6516909392614786e-02  9.1200308025484178e-02  8.2985805004521851e-02  7.2720210952976275e-02  6.1374925020713317e-02  4.9895730597444246e-02  3.9078285611162389e-02  2.9490441931552955e-02  2.1447920289596422e-02  1.5036331838924605e-02  1.0163801983825457e-02  6.6258808936375362e-03  4.1671079653939069e-03  2.5292646107100006e-03  1.4825284586864542e-03  8.4063138525945519e-04  4.6394183464110682e-04  2.5524734668387855e-04  1.5252256263037278e-04  1.2185452060138325e-04  9.8361965028804413e-02  9.6521080655827401e-02  9.1203653948380703e-02  8.2987892991809489e-02  7.2720792602204667e-02  6.1373988497414073e-02  4.9893501841599790e-02  3.9075169248401882e-02  2.9486920692109141e-02  2.1444447706140561e-02  1.5033251092746390e-02  1.0161308700152784e-02  6.6240292441002739e-03  4.1658461507484441e-03  2.5284813122400697e-03  1.4820949066514193e-03  8.4043044728513826e-04  4.6388215479172825e-04  2.5526486231548952e-04  1.5257336363083359e-04  1.2190291644558755e-04  9.8387090235700358e-02  9.6545205467032588e-02  9.1225184148040095e-02  8.3005042561217976e-02  7.2731936274351427e-02  6.1378146127801340e-02  4.9890674909328053e-02  3.9066373544352710e-02  2.9473921476469749e-02  2.1429323150367441e-02  1.5017948672479173e-02  1.0147324515362465e-02  6.6122673853301877e-03  4.1566438532149256e-03  2.5217415728561584e-03  1.4774576408128634e-03  8.3742737594294503e-04  4.6204506087655755e-04  2.5417962169822436e-04  1.5188736530191604e-04  1.2130112948246408e-04  9.8444980657329095e-02  9.6604689374123781e-02  9.1286774355490305e-02  8.3064524369919068e-02  7.2782350789673392e-02  6.1412677937975613e-02  4.9905045203726718e-02  3.9060001415225407e-02  2.9449751297792214e-02  2.1392685837223778e-02  1.4975035517011282e-02  1.0103810146924954e-02  6.5724139616822903e-03  4.1229728859595834e-03  2.4951693309030617e-03  1.4576982590100759e-03  8.2346742132256975e-04  4.5254852737066520e-04  2.4775366322807795e-04  1.4720018203329734e-04  1.1708642592957721e-04  9.8438042272476489e-02  9.6634795133800910e-02  9.1373274537514149e-02  8.3194992011381877e-02  7.2929047300126518e-02  6.1545434955655169e-02  5.0000245461228270e-02  3.9105224206206858e-02  2.9444322172585996e-02  2.1345171763404731e-02  1.4899196188148639e-02  1.0014486478543524e-02  6.4824014196475811e-03  4.0413261503359126e-03  2.4268519772809695e-03  1.4041679552168856e-03  7.8369658374614741e-04  4.2406013101490262e-04  2.2740956465091411e-04  1.3163950859635011e-04  1.0284121596612600e-04  9.7638858194939296e-02  9.6334891598863423e-02  9.1422850441028145e-02  8.3464869073600081e-02  7.3304245188613532e-02  6.1929452497509779e-02  5.0322030521677871e-02  3.9323468719212600e-02  2.9546654111199125e-02  2.1342451316921723e-02  1.4816863501104248e-02  9.8834879606462533e-03  6.3317974054901043e-03  3.8936995537477196e-03  2.2965953865765544e-03  1.2979819940114234e-03  7.0231471598889090e-04  3.6425692259602153e-04  1.8357875142950293e-04  9.6461093405420426e-05  6.6650007059289345e-05  </DataArray> 
</PointData> 
</Piece>
</UnstructuredGrid>
</VTKFile>