<?xml version="1.0"?>
<VTKFile type="UnstructuredGrid"  version="0.1"  >
<UnstructuredGrid>
<Piece  NumberOfPoints="441" NumberOfCells="800">
<Points>
<DataArray  type="Float64"  NumberOfComponents="3"  format="ascii">-2 -2 0  -1.8 -2 0  -1.6 -2 0  -1.4 -2 0  -1.2 -2 0  -1 -2 0  -0.8 -2 0  -0.6000000000000001 -2 0  -0.3999999999999999 -2 0  -0.2 -2 0  0 -2 0  0.2000000000000002 -2 0  0.3999999999999999 -2 0  0.6000000000000001 -2 0  0.7999999999999998 -2 0  1 -2 0  1.2 -2 0  1.4 -2 0  1.6 -2 0  1.8 -2 0  2 -2 0  -2 -1.8 0  -1.8 -1.8 0  -1.6 -1.8 0  -1.4 -1.8 0  -1.2 -1.8 0  -1 -1.8 0  -0.8 -1.8 0  -0.6000000000000001 -1.8 0  -0.3999999999999999 -1.8 0  -0.2 -1.8 0  0 -1.8 0  0.2000000000000002 -1.8 0  0.3999999999999999 -1.8 0  0.6000000000000001 -1.8 0  0.7999999999999998 -1.8 0  1 -1.8 0  1.2 -1.8 0  1.4 -1.8 0  1.6 -1.8 0  1.8 -1.8 0  2 -1.8 0  -2 -1.6 0  -1.8 -1.6 0  -1.6 -1.6 0  -1.4 -1.6 0  -1.2 -1.6 0  -1 -1.6 0  -0.8 -1.6 0  -0.6000000000000001 -1.6 0  -0.3999999999999999 -1.6 0  -0.2 -1.6 0  0 -1.6 0  0.2000000000000002 -1.6 0  0.3999999999999999 -1.6 0  0.6000000000000001 -1.6 0  0.7999999999999998 -1.6 0  1 -1.6 0  1.2 -1.6 0  1.4 -1.6 0  1.6 -1.6 0  1.8 -1.6 0  2 -1.6 0  -2 -1.4 0  -1.8 -1.4 0  -1.6 -1.4 0  -1.4 -1.4 0  -1.2 -1.4 0  -1 -1.4 0  -0.8 -1.4 0  -0.6000000000000001 -1.4 0  -0.3999999999999999 -1.4 0  -0.2 -1.4 0  0 -1.4 0  0.2000000000000002 -1.4 0  0.3999999999999999 -1.4 0  0.6000000000000001 -1.4 0  0.7999999999999998 -1.4 0  1 -1.4 0  1.2 -1.4 0  1.4 -1.4 0  1.6 -1.4 0  1.8 -1.4 0  2 -1.4 0  -2 -1.2 0  -1.8 -1.2 0  -1.6 -1.2 0  -1.4 -1.2 0  -1.2 -1.2 0  -1 -1.2 0  -0.8 -1.2 0  -0.6000000000000001 -1.2 0  -0.3999999999999999 -1.2 0  -0.2 -1.2 0  0 -1.2 0  0.2000000000000002 -1.2 0  0.3999999999999999 -1.2 0  0.6000000000000001 -1.2 0  0.7999999999999998 -1.2 0  1 -1.2 0  1.2 -1.2 0  1.4 -1.2 0  1.6 -1.2 0  1.8 -1.2 0  2 -1.2 0  -2 -1 0  -1.8 -1 0  -1.6 -1 0  -1.4 -1 0  -1.2 -1 0  -1 -1 0  -0.8 -1 0  -0.6000000000000001 -1 0  -0.3999999999999999 -1 0  -0.2 -1 0  0 -1 0  0.2000000000000002 -1 0  0.3999999999999999 -1 0  0.6000000000000001 -1 0  0.7999999999999998 -1 0  1 -1 0  1.2 -1 0  1.4 -1 0  1.6 -1 0  1.8 -1 0  2 -1 0  -2 -0.8 0  -1.8 -0.8 0  -1.6 -0.8 0  -1.4 -0.8 0  -1.2 -0.8 0  -1 -0.8 0  -0.8 -0.8 0  -0.6000000000000001 -0.8 0  -0.3999999999999999 -0.8 0  -0.2 -0.8 0  0 -0.8 0  0.2000000000000002 -0.8 0  0.3999999999999999 -0.8 0  0.6000000000000001 -0.8 0  0.7999999999999998 -0.8 0  1 -0.8 0  1.2 -0.8 0  1.4 -0.8 0  1.6 -0.8 0  1.8 -0.8 0  2 -0.8 0  -2 -0.6000000000000001 0  -1.8 -0.6000000000000001 0  -1.6 -0.6000000000000001 0  -1.4 -0.6000000000000001 0  -1.2 -0.6000000000000001 0  -1 -0.6000000000000001 0  -0.8 -0.6000000000000001 0  -0.6000000000000001 -0.6000000000000001 0  -0.3999999999999999 -0.6000000000000001 0  -0.2 -0.6000000000000001 0  0 -0.6000000000000001 0  0.2000000000000002 -0.6000000000000001 0  0.3999999999999999 -0.6000000000000001 0  0.6000000000000001 -0.6000000000000001 0  0.7999999999999998 -0.6000000000000001 0  1 -0.6000000000000001 0  1.2 -0.6000000000000001 0  1.4 -0.6000000000000001 0  1.6 -0.6000000000000001 0  1.8 -0.6000000000000001 0  2 -0.6000000000000001 0  -2 -0.3999999999999999 0  -1.8 -0.3999999999999999 0  -1.6 -0.3999999999999999 0  -1.4 -0.3999999999999999 0  -1.2 -0.3999999999999999 0  -1 -0.3999999999999999 0  -0.8 -0.3999999999999999 0  -0.6000000000000001 -0.3999999999999999 0  -0.3999999999999999 -0.3999999999999999 0  -0.2 -0.3999999999999999 0  0 -0.3999999999999999 0  0.2000000000000002 -0.3999999999999999 0  0.3999999999999999 -0.3999999999999999 0  0.6000000000000001 -0.3999999999999999 0  0.7999999999999998 -0.3999999999999999 0  1 -0.3999999999999999 0  1.2 -0.3999999999999999 0  1.4 -0.3999999999999999 0  1.6 -0.3999999999999999 0  1.8 -0.3999999999999999 0  2 -0.3999999999999999 0  -2 -0.2 0  -1.8 -0.2 0  -1.6 -0.2 0  -1.4 -0.2 0  -1.2 -0.2 0  -1 -0.2 0  -0.8 -0.2 0  -0.6000000000000001 -0.2 0  -0.3999999999999999 -0.2 0  -0.2 -0.2 0  0 -0.2 0  0.2000000000000002 -0.2 0  0.3999999999999999 -0.2 0  0.6000000000000001 -0.2 0  0.7999999999999998 -0.2 0  1 -0.2 0  1.2 -0.2 0  1.4 -0.2 0  1.6 -0.2 0  1.8 -0.2 0  2 -0.2 0  -2 0 0  -1.8 0 0  -1.6 0 0  -1.4 0 0  -1.2 0 0  -1 0 0  -0.8 0 0  -0.6000000000000001 0 0  -0.3999999999999999 0 0  -0.2 0 0  0 0 0  0.2000000000000002 0 0  0.3999999999999999 0 0  0.6000000000000001 0 0  0.7999999999999998 0 0  1 0 0  1.2 0 0  1.4 0 0  1.6 0 0  1.8 0 0  2 0 0  -2 0.2000000000000002 0  -1.8 0.2000000000000002 0  -1.6 0.2000000000000002 0  -1.4 0.2000000000000002 0  -1.2 0.2000000000000002 0  -1 0.2000000000000002 0  -0.8 0.2000000000000002 0  -0.6000000000000001 0.2000000000000002 0  -0.3999999999999999 0.2000000000000002 0  -0.2 0.2000000000000002 0  0 0.2000000000000002 0  0.2000000000000002 0.2000000000000002 0  0.3999999999999999 0.2000000000000002 0  0.6000000000000001 0.2000000000000002 0  0.7999999999999998 0.2000000000000002 0  1 0.2000000000000002 0  1.2 0.2000000000000002 0  1.4 0.2000000000000002 0  1.6 0.2000000000000002 0  1.8 0.2000000000000002 0  2 0.2000000000000002 0  -2 0.3999999999999999 0  -1.8 0.3999999999999999 0  -1.6 0.3999999999999999 0  -1.4 0.3999999999999999 0  -1.2 0.3999999999999999 0  -1 0.3999999999999999 0  -0.8 0.3999999999999999 0  -0.6000000000000001 0.3999999999999999 0  -0.3999999999999999 0.3999999999999999 0  -0.2 0.3999999999999999 0  0 0.3999999999999999 0  0.2000000000000002 0.3999999999999999 0  0.3999999999999999 0.3999999999999999 0  0.6000000000000001 0.3999999999999999 0  0.7999999999999998 0.3999999999999999 0  1 0.3999999999999999 0  1.2 0.3999999999999999 0  1.4 0.3999999999999999 0  1.6 0.3999999999999999 0  1.8 0.3999999999999999 0  2 0.3999999999999999 0  -2 0.6000000000000001 0  -1.8 0.6000000000000001 0  -1.6 0.6000000000000001 0  -1.4 0.6000000000000001 0  -1.2 0.6000000000000001 0  -1 0.6000000000000001 0  -0.8 0.6000000000000001 0  -0.6000000000000001 0.6000000000000001 0  -0.3999999999999999 0.6000000000000001 0  -0.2 0.6000000000000001 0  0 0.6000000000000001 0  0.2000000000000002 0.6000000000000001 0  0.3999999999999999 0.6000000000000001 0  0.6000000000000001 0.6000000000000001 0  0.7999999999999998 0.6000000000000001 0  1 0.6000000000000001 0  1.2 0.6000000000000001 0  1.4 0.6000000000000001 0  1.6 0.6000000000000001 0  1.8 0.6000000000000001 0  2 0.6000000000000001 0  -2 0.7999999999999998 0  -1.8 0.7999999999999998 0  -1.6 0.7999999999999998 0  -1.4 0.7999999999999998 0  -1.2 0.7999999999999998 0  -1 0.7999999999999998 0  -0.8 0.7999999999999998 0  -0.6000000000000001 0.7999999999999998 0  -0.3999999999999999 0.7999999999999998 0  -0.2 0.7999999999999998 0  0 0.7999999999999998 0  0.2000000000000002 0.7999999999999998 0  0.3999999999999999 0.7999999999999998 0  0.6000000000000001 0.7999999999999998 0  0.7999999999999998 0.7999999999999998 0  1 0.7999999999999998 0  1.2 0.7999999999999998 0  1.4 0.7999999999999998 0  1.6 0.7999999999999998 0  1.8 0.7999999999999998 0  2 0.7999999999999998 0  -2 1 0  -1.8 1 0  -1.6 1 0  -1.4 1 0  -1.2 1 0  -1 1 0  -0.8 1 0  -0.6000000000000001 1 0  -0.3999999999999999 1 0  -0.2 1 0  0 1 0  0.2000000000000002 1 0  0.3999999999999999 1 0  0.6000000000000001 1 0  0.7999999999999998 1 0  1 1 0  1.2 1 0  1.4 1 0  1.6 1 0  1.8 1 0  2 1 0  -2 1.2 0  -1.8 1.2 0  -1.6 1.2 0  -1.4 1.2 0  -1.2 1.2 0  -1 1.2 0  -0.8 1.2 0  -0.6000000000000001 1.2 0  -0.3999999999999999 1.2 0  -0.2 1.2 0  0 1.2 0  0.2000000000000002 1.2 0  0.3999999999999999 1.2 0  0.6000000000000001 1.2 0  0.7999999999999998 1.2 0  1 1.2 0  1.2 1.2 0  1.4 1.2 0  1.6 1.2 0  1.8 1.2 0  2 1.2 0  -2 1.4 0  -1.8 1.4 0  -1.6 1.4 0  -1.4 1.4 0  -1.2 1.4 0  -1 1.4 0  -0.8 1.4 0  -0.6000000000000001 1.4 0  -0.3999999999999999 1.4 0  -0.2 1.4 0  0 1.4 0  0.2000000000000002 1.4 0  0.3999999999999999 1.4 0  0.6000000000000001 1.4 0  0.7999999999999998 1.4 0  1 1.4 0  1.2 1.4 0  1.4 1.4 0  1.6 1.4 0  1.8 1.4 0  2 1.4 0  -2 1.6 0  -1.8 1.6 0  -1.6 1.6 0  -1.4 1.6 0  -1.2 1.6 0  -1 1.6 0  -0.8 1.6 0  -0.6000000000000001 1.6 0  -0.3999999999999999 1.6 0  -0.2 1.6 0  0 1.6 0  0.2000000000000002 1.6 0  0.3999999999999999 1.6 0  0.6000000000000001 1.6 0  0.7999999999999998 1.6 0  1 1.6 0  1.2 1.6 0  1.4 1.6 0  1.6 1.6 0  1.8 1.6 0  2 1.6 0  -2 1.8 0  -1.8 1.8 0  -1.6 1.8 0  -1.4 1.8 0  -1.2 1.8 0  -1 1.8 0  -0.8 1.8 0  -0.6000000000000001 1.8 0  -0.3999999999999999 1.8 0  -0.2 1.8 0  0 1.8 0  0.2000000000000002 1.8 0  0.3999999999999999 1.8 0  0.6000000000000001 1.8 0  0.7999999999999998 1.8 0  1 1.8 0  1.2 1.8 0  1.4 1.8 0  1.6 1.8 0  1.8 1.8 0  2 1.8 0  -2 2 0  -1.8 2 0  -1.6 2 0  -1.4 2 0  -1.2 2 0  -1 2 0  -0.8 2 0  -0.6000000000000001 2 0  -0.3999999999999999 2 0  -0.2 2 0  0 2 0  0.2000000000000002 2 0  0.3999999999999999 2 0  0.6000000000000001 2 0  0.7999999999999998 2 0  1 2 0  1.2 2 0  1.4 2 0  1.6 2 0  1.8 2 0  2 2 0  </DataArray>
</Points>
<Cells>
[...]
<PointData  Scalars="f_8"> 
<DataArray  type="Float64"  Name="f_8"  format="ascii">3.7132399499844600e-02  3.7134504081732245e-02  3.7135382864955914e-02  3.7135840018451521e-02  3.7136113482164265e-02  3.7136290266675830e-02  3.7136409792757639e-02  3.7136493399467764e-02  3.7136554322383462e-02  3.7136601745829709e-02  3.7136642783319018e-02  3.7136683657160566e-02  3.7136730588564343e-02  3.7136790686173440e-02  3.7136873119888211e-02  3.7136991086945764e-02  3.7137165828820096e-02  3.7137436521421652e-02  3.7137889589078737e-02  3.7138761915608519e-02  3.7140859066435043e-02  3.7147649200853824e-02  3.7148135669957630e-02  3.7148605723069029e-02  3.7148939669210582e-02  3.7149166833053221e-02  3.7149322005432403e-02  3.7149429531373623e-02  3.7149505560521039e-02  3.7149561168228692e-02  3.7149604451275596e-02  3.7149641855701715e-02  3.7149679089312396e-02  3.7149721858603595e-02  3.7149776604676742e-02  3.7149851412603116e-02  3.7149957334259090e-02  3.7150110481264514e-02  3.7150335167421819e-02  3.7150666289352409e-02  3.7151133867330793e-02  3.7151619981763806e-02  3.7187177362083067e-02  3.7187231779040479e-02  3.7187408931910318e-02  3.7187584818025379e-02  3.7187726431030674e-02  3.7187832372869434e-02  3.7187909386065830e-02  3.7187965040091919e-02  3.7188005942590689e-02  3.7188037610564065e-02  3.7188064775806377e-02  3.7188091775302676e-02  3.7188122947181608e-02  3.7188163027151673e-02  3.7188217541136027e-02  3.7188293117868997e-02  3.7188397380560304e-02  3.7188537210181817e-02  3.7188711540896251e-02  3.7188888030148533e-02  3.7188943535070844e-02  3.7250294941387929e-02  3.7250196348567487e-02  3.7250204746135121e-02  3.7250253977162688e-02  3.7250309529271095e-02  3.7250357822951878e-02  3.7250395428846221e-02  3.7250423091662259e-02  3.7250443004817425e-02  3.7250457719464086e-02  3.7250469786311462e-02  3.7250481703298463e-02  3.7250495972788580e-02  3.7250515160246946e-02  3.7250541847100360e-02  3.7250578283833907e-02  3.7250625320403408e-02  3.7250679715496303e-02  3.7250728198550291e-02  3.7250736675515331e-02  3.7250639347300420e-02  3.7335207371598615e-02  3.7335033121491584e-02  3.7334941301977523e-02  3.7334899259522464e-02  3.7334882441009347e-02  3.7334876338486846e-02  3.7334873556558471e-02  3.7334870832088911e-02  3.7334867059087326e-02  3.7334862174910999e-02  3.7334856583493087e-02  3.7334850864855974e-02  3.7334845605878901e-02  3.7334841232692664e-02  3.7334837725350269e-02  3.7334834050334040e-02  3.7334827059984622e-02  3.7334809530552425e-02  3.7334767181129408e-02  3.7334675698030013e-02  3.7334502572890060e-02  3.7439480079844753e-02  3.7439258495981481e-02  3.7439102969170544e-02  3.7438996733642600e-02  3.7438923678248366e-02  3.7438871647560594e-02  3.7438832493689893e-02  3.7438801062625739e-02  3.7438774145709182e-02  3.7438749692304964e-02  3.7438726281437316e-02  3.7438702768482837e-02  3.7438678016538753e-02  3.7438650629040782e-02  3.7438618600103814e-02  3.7438578791637728e-02  3.7438526151425448e-02  3.7438452665162957e-02  3.7438346329705378e-02  3.7438191168317266e-02  3.7437970475358906e-02  3.7560209095776752e-02  3.7559955176617484e-02  3.7559757585698628e-02  3.7559606938449425e-02  3.7559492531330799e-02  3.7559404765410330e-02  3.7559335961315679e-02  3.7559280278055378e-02  3.7559233305596920e-02  3.7559191619333937e-02  3.7559152395381788e-02  3.7559113093896805e-02  3.7559071182108966e-02  3.7559023858111711e-02  3.7558967736199475e-02  3.7558898464533585e-02  3.7558810280371085e-02  3.7558695598442868e-02  3.7558544916477359e-02  3.7558347606029739e-02  3.7558094308103612e-02  3.7694129000380619e-02  3.7693853643464600e-02  3.7693628939168354e-02  3.7693449022309665e-02  3.7693306356916693e-02  3.7693193281345627e-02  3.7693102846197375e-02  3.7693029085139523e-02  3.7692966960812167e-02  3.7692912167462719e-02  3.7692860889478104e-02  3.7692809556424525e-02  3.7692754603188709e-02  3.7692692230497739e-02  3.7692618160854716e-02  3.7692527397712304e-02  3.7692414027105332e-02  3.7692271159038913e-02  3.7692091188733332e-02  3.7691866620563334e-02  3.7691591599851200e-02  3.7837709021184211e-02  3.7837421668230294e-02  3.7837181693920467e-02  3.7836984946188333e-02  3.7836825650922404e-02  3.7836697405271583e-02  3.7836593878709482e-02  3.7836509182538204e-02  3.7836437983721383e-02  3.7836375457534592e-02  3.7836317152282882e-02  3.7836258812154439e-02  3.7836196184242339e-02  3.7836124825733203e-02  3.7836039927112937e-02  3.7835936176966088e-02  3.7835807713694505e-02  3.7835648236547538e-02  3.7835451369977458e-02  3.7835211357948123e-02  3.7834924051448095e-02  3.7987248125802474e-02  3.7986957570465128e-02  3.7986712620527413e-02  3.7986509916532331e-02  3.7986344570046536e-02  3.7986210875324417e-02  3.7986102897851926e-02  3.7986014856408901e-02  3.7985941305235117e-02  3.7985877162435559e-02  3.7985817636535781e-02  3.7985758094395569e-02  3.7985693903059059e-02  3.7985620271678663e-02  3.7985532119616652e-02  3.7985424003200326e-02  3.7985290144169542e-02  3.7985124611522141e-02  3.7984921702743014e-02  3.7984676531056548e-02  3.7984385735722895e-02  3.8138970429656326e-02  3.8138685046283767e-02  3.8138444555695504e-02  3.8138245837518216e-02  3.8138084286284554e-02  3.8137954435957432e-02  3.8137850506329771e-02  3.8137766781596374e-02  3.8137697809433935e-02  3.8137638451625808e-02  3.8137583830290166e-02  3.8137529210969683e-02  3.8137469856636609e-02  3.8137400881707084e-02  3.8137317135245347e-02  3.8137213147664974e-02  3.8137083182566978e-02  3.8136921438138349e-02  3.8136722429172584e-02  3.8136481537274738e-02  3.8136195637765234e-02  3.8289119724961670e-02  3.8288847504417411e-02  3.8288620382543721e-02  3.8288435031299632e-02  3.8288286615848093e-02  3.8288169496212214e-02  3.8288077808078948e-02  3.8288005840410338e-02  3.8287948215588473e-02  3.8287899916995660e-02  3.8287856215015278e-02  3.8287812534174084e-02  3.8287764293878201e-02  3.8287706749027491e-02  3.8287634856990438e-02  3.8287543203998083e-02  3.8287426034674978e-02  3.8287277436847185e-02  3.8287091727115911e-02  3.8286864041619365e-02  3.8286591045274772e-02  3.8434051229162422e-02  3.8433799771147886e-02  3.8433594635957871e-02  3.8433431760517008e-02  3.8433305506544703e-02  3.8433209623485766e-02  3.8433137930957657e-02  3.8433084680785254e-02  3.8433044669781875e-02  3.8433013193566103e-02  3.8432985912231730e-02  3.8432958673001519e-02  3.8432927315904621e-02  3.8432887479058861e-02  3.8432834420410324e-02  3.8432762882863951e-02  3.8432667049612339e-02  3.8432540662883131e-02  3.8432377398603106e-02  3.8432171567535943e-02  3.8431919095595318e-02  3.8570318469276207e-02  3.8570095025997085e-02  3.8569920520516034e-02  3.8569789308779877e-02  3.8569694145430447e-02  3.8569627653774051e-02  3.8569583131703361e-02  3.8569554819395203e-02  3.8569537853810065e-02  3.8569528081062787e-02  3.8569521821464156e-02  3.8569515627126259e-02  3.8569506041714628e-02  3.8569489359369699e-02  3.8569461380066186e-02  3.8569417171924719e-02  3.8569350882538156e-02  3.8569255698179081e-02  3.8569124127654363e-02  3.8568948839424556e-02  3.8568724169173549e-02  3.8694753198535388e-02  3.8694564901890223e-02  3.8694430319664311e-02  3.8694340609489855e-02  3.8694285664791196e-02  3.8694256379984270e-02  3.8694245434298440e-02  3.8694247237444385e-02  3.8694257560176658e-02  3.8694273118338299e-02  3.8694291205312203e-02  3.8694309382287233e-02  3.8694325201951527e-02  3.8694335930850532e-02  3.8694338235686812e-02  3.8694327809582825e-02  3.8694298949523101e-02  3.8694244185168453e-02  3.8694154238847631e-02  3.8694018855299134e-02  3.8693829145456368e-02  3.8804536198198417e-02  3.8804390796317534e-02  3.8804307444698823e-02  3.8804270716681986e-02  3.8804265690376746e-02  3.8804281001067371e-02  3.8804308947173322e-02  3.8804344602006803e-02  3.8804384868558403e-02  3.8804427755189351e-02  3.8804471877509128e-02  3.8804516114344496e-02  3.8804559337429649e-02  3.8804600139438143e-02  3.8804636484607830e-02  3.8804665200678351e-02  3.8804681239638483e-02  3.8804676716057793e-02  3.8804640016459897e-02  3.8804555955868014e-02  3.8804408982364563e-02  3.8897256440322284e-02  3.8897164588765985e-02  3.8897148835376108e-02  3.8897179845395563e-02  3.8897235291219266e-02  3.8897301752597931e-02  3.8897372216087335e-02  3.8897443458144824e-02  3.8897514281107499e-02  3.8897584498257962e-02  3.8897654391099774e-02  3.8897724419782044e-02  3.8897795040103503e-02  3.8897866519073641e-02  3.8897938640211627e-02  3.8898010149374489e-02  3.8898077717239375e-02  3.8898134136502269e-02  3.8898165657146176e-02  3.8898149489960579e-02  3.8898055944900263e-02  3.8970954340918601e-02  3.8970937348262222e-02  3.8971017407946826e-02  3.8971136349422369e-02  3.8971263206281657e-02  3.8971385337172815e-02  3.8971499165305991e-02  3.8971604962227076e-02  3.8971704424757253e-02  3.8971799674022943e-02  3.8971892899536946e-02  3.8971986275529433e-02  3.8972081975161811e-02  3.8972182184239458e-02  3.8972289015250960e-02  3.8972404144169630e-02  3.8972527788591164e-02  3.8972656230281899e-02  3.8972776478205649e-02  3.8972856829896665e-02  3.8972838122007469e-02  3.9024137509171532e-02  3.9024256757164491e-02  3.9024486653561091e-02  3.9024719814012857e-02  3.9024926327130387e-02  3.9025103810904092e-02  3.9025257324008376e-02  3.9025392962838364e-02  3.9025516211631174e-02  3.9025631751359612e-02  3.9025743666119314e-02  3.9025855736636882e-02  3.9025971745005793e-02  3.9026095780176330e-02  3.9026232533680941e-02  3.9026387508947477e-02  3.9026566828935141e-02  3.9026775558016244e-02  3.9027011156584496e-02  3.9027242884709198e-02  3.9027360857991536e-02  3.9055725789501970e-02  3.9056206946553658e-02  3.9056685097814500e-02  3.9057054513265542e-02  3.9057336672792785e-02  3.9057559290340250e-02  3.9057742139470067e-02  3.9057898520746703e-02  3.9058037686407372e-02  3.9058166504148929e-02  3.9058290519053421e-02  3.9058414685521743e-02  3.9058543959760814e-02  3.9058683893580762e-02  3.9058841370948089e-02  3.9059025680523260e-02  3.9059250202882714e-02  3.9059534884398013e-02  3.9059907768623718e-02  3.9060390518354866e-02  3.9060873216788396e-02  3.9064738183295193e-02  3.9066539499031265e-02  3.9067355158414321e-02  3.9067828132567962e-02  3.9068150274249612e-02  3.9068392288323948e-02  3.9068586456033089e-02  3.9068750412614407e-02  3.9068895224890612e-02  3.9069028678303246e-02  3.9069156882931638e-02  3.9069285228766369e-02  3.9069419106376936e-02  3.9069564628407077e-02  3.9069729587565820e-02  3.9069925068126961e-02  3.9070168744062071e-02  3.9070492988238344e-02  3.9070968803379638e-02  3.9071789534283578e-02  3.9073607551768322e-02  </DataArray> 
</PointData> 
</Piece>
</UnstructuredGrid>
</VTKFile>