<?xml version="1.0"?>
<VTKFile type="UnstructuredGrid"  version="0.1"  >
<UnstructuredGrid>
<Piece  NumberOfPoints="441" NumberOfCells="800">
<Points>
<DataArray  type="Float64"  NumberOfComponents="3"  format="ascii">-2 -2 0  -1.8 -2 0  -1.6 -2 0  -1.4 -2 0  -1.2 -2 0  -1 -2 0  -0.8 -2 0  -0.6000000000000001 -2 0  -0.3999999999999999 -2 0  -0.2 -2 0  0 -2 0  0.2000000000000002 -2 0  0.3999999999999999 -2 0  0.6000000000000001 -2 0  0.7999999999999998 -2 0  1 -2 0  1.2 -2 0  1.4 -2 0  1.6 -2 0  1.8 -2 0  2 -2 0  -2 -1.8 0  -1.8 -1.8 0  -1.6 -1.8 0  -1.4 -1.8 0  -1.2 -1.8 0  -1 -1.8 0  -0.8 -1.8 0  -0.6000000000000001 -1.8 0  -0.3999999999999999 -1.8 0  -0.2 -1.8 0  0 -1.8 0  0.2000000000000002 -1.8 0  0.3999999999999999 -1.8 0  0.6000000000000001 -1.8 0  0.7999999999999998 -1.8 0  1 -1.8 0  1.2 -1.8 0  1.4 -1.8 0  1.6 -1.8 0  1.8 -1.8 0  2 -1.8 0  -2 -1.6 0  -1.8 -1.6 0  -1.6 -1.6 0  -1.4 -1.6 0  -1.2 -1.6 0  -1 -1.6 0  -0.8 -1.6 0  -0.6000000000000001 -1.6 0  -0.3999999999999999 -1.6 0  -0.2 -1.6 0  0 -1.6 0  0.2000000000000002 -1.6 0  0.3999999999999999 -1.6 0  0.6000000000000001 -1.6 0  0.7999999999999998 -1.6 0  1 -1.6 0  1.2 -1.6 0  1.4 -1.6 0  1.6 -1.6 0  1.8 -1.6 0  2 -1.6 0  -2 -1.4 0  -1.8 -1.4 0  -1.6 -1.4 0  -1.4 -1.4 0  -1.2 -1.4 0  -1 -1.4 0  -0.8 -1.4 0  -0.6000000000000001 -1.4 0  -0.3999999999999999 -1.4 0  -0.2 -1.4 0  0 -1.4 0  0.2000000000000002 -1.4 0  0.3999999999999999 -1.4 0  0.6000000000000001 -1.4 0  0.7999999999999998 -1.4 0  1 -1.4 0  1.2 -1.4 0  1.4 -1.4 0  1.6 -1.4 0  1.8 -1.4 0  2 -1.4 0  -2 -1.2 0  -1.8 -1.2 0  -1.6 -1.2 0  -1.4 -1.2 0  -1.2 -1.2 0  -1 -1.2 0  -0.8 -1.2 0  -0.6000000000000001 -1.2 0  -0.3999999999999999 -1.2 0  -0.2 -1.2 0  0 -1.2 0  0.2000000000000002 -1.2 0  0.3999999999999999 -1.2 0  0.6000000000000001 -1.2 0  0.7999999999999998 -1.2 0  1 -1.2 0  1.2 -1.2 0  1.4 -1.2 0  1.6 -1.2 0  1.8 -1.2 0  2 -1.2 0  -2 -1 0  -1.8 -1 0  -1.6 -1 0  -1.4 -1 0  -1.2 -1 0  -1 -1 0  -0.8 -1 0  -0.6000000000000001 -1 0  -0.3999999999999999 -1 0  -0.2 -1 0  0 -1 0  0.2000000000000002 -1 0  0.3999999999999999 -1 0  0.6000000000000001 -1 0  0.7999999999999998 -1 0  1 -1 0  1.2 -1 0  1.4 -1 0  1.6 -1 0  1.8 -1 0  2 -1 0  -2 -0.8 0  -1.8 -0.8 0  -1.6 -0.8 0  -1.4 -0.8 0  -1.2 -0.8 0  -1 -0.8 0  -0.8 -0.8 0  -0.6000000000000001 -0.8 0  -0.3999999999999999 -0.8 0  -0.2 -0.8 0  0 -0.8 0  0.2000000000000002 -0.8 0  0.3999999999999999 -0.8 0  0.6000000000000001 -0.8 0  0.7999999999999998 -0.8 0  1 -0.8 0  1.2 -0.8 0  1.4 -0.8 0  1.6 -0.8 0  1.8 -0.8 0  2 -0.8 0  -2 -0.6000000000000001 0  -1.8 -0.6000000000000001 0  -1.6 -0.6000000000000001 0  -1.4 -0.6000000000000001 0  -1.2 -0.6000000000000001 0  -1 -0.6000000000000001 0  -0.8 -0.6000000000000001 0  -0.6000000000000001 -0.6000000000000001 0  -0.3999999999999999 -0.6000000000000001 0  -0.2 -0.6000000000000001 0  0 -0.6000000000000001 0  0.2000000000000002 -0.6000000000000001 0  0.3999999999999999 -0.6000000000000001 0  0.6000000000000001 -0.6000000000000001 0  0.7999999999999998 -0.6000000000000001 0  1 -0.6000000000000001 0  1.2 -0.6000000000000001 0  1.4 -0.6000000000000001 0  1.6 -0.6000000000000001 0  1.8 -0.6000000000000001 0  2 -0.6000000000000001 0  -2 -0.3999999999999999 0  -1.8 -0.3999999999999999 0  -1.6 -0.3999999999999999 0  -1.4 -0.3999999999999999 0  -1.2 -0.3999999999999999 0  -1 -0.3999999999999999 0  -0.8 -0.3999999999999999 0  -0.6000000000000001 -0.3999999999999999 0  -0.3999999999999999 -0.3999999999999999 0  -0.2 -0.3999999999999999 0  0 -0.3999999999999999 0  0.2000000000000002 -0.3999999999999999 0  0.3999999999999999 -0.3999999999999999 0  0.6000000000000001 -0.3999999999999999 0  0.7999999999999998 -0.3999999999999999 0  1 -0.3999999999999999 0  1.2 -0.3999999999999999 0  1.4 -0.3999999999999999 0  1.6 -0.3999999999999999 0  1.8 -0.3999999999999999 0  2 -0.3999999999999999 0  -2 -0.2 0  -1.8 -0.2 0  -1.6 -0.2 0  -1.4 -0.2 0  -1.2 -0.2 0  -1 -0.2 0  -0.8 -0.2 0  -0.6000000000000001 -0.2 0  -0.3999999999999999 -0.2 0  -0.2 -0.2 0  0 -0.2 0  0.2000000000000002 -0.2 0  0.3999999999999999 -0.2 0  0.6000000000000001 -0.2 0  0.7999999999999998 -0.2 0  1 -0.2 0  1.2 -0.2 0  1.4 -0.2 0  1.6 -0.2 0  1.8 -0.2 0  2 -0.2 0  -2 0 0  -1.8 0 0  -1.6 0 0  -1.4 0 0  -1.2 0 0  -1 0 0  -0.8 0 0  -0.6000000000000001 0 0  -0.3999999999999999 0 0  -0.2 0 0  0 0 0  0.2000000000000002 0 0  0.3999999999999999 0 0  0.6000000000000001 0 0  0.7999999999999998 0 0  1 0 0  1.2 0 0  1.4 0 0  1.6 0 0  1.8 0 0  2 0 0  -2 0.2000000000000002 0  -1.8 0.2000000000000002 0  -1.6 0.2000000000000002 0  -1.4 0.2000000000000002 0  -1.2 0.2000000000000002 0  -1 0.2000000000000002 0  -0.8 0.2000000000000002 0  -0.6000000000000001 0.2000000000000002 0  -0.3999999999999999 0.2000000000000002 0  -0.2 0.2000000000000002 0  0 0.2000000000000002 0  0.2000000000000002 0.2000000000000002 0  0.3999999999999999 0.2000000000000002 0  0.6000000000000001 0.2000000000000002 0  0.7999999999999998 0.2000000000000002 0  1 0.2000000000000002 0  1.2 0.2000000000000002 0  1.4 0.2000000000000002 0  1.6 0.2000000000000002 0  1.8 0.2000000000000002 0  2 0.2000000000000002 0  -2 0.3999999999999999 0  -1.8 0.3999999999999999 0  -1.6 0.3999999999999999 0  -1.4 0.3999999999999999 0  -1.2 0.3999999999999999 0  -1 0.3999999999999999 0  -0.8 0.3999999999999999 0  -0.6000000000000001 0.3999999999999999 0  -0.3999999999999999 0.3999999999999999 0  -0.2 0.3999999999999999 0  0 0.3999999999999999 0  0.2000000000000002 0.3999999999999999 0  0.3999999999999999 0.3999999999999999 0  0.6000000000000001 0.3999999999999999 0  0.7999999999999998 0.3999999999999999 0  1 0.3999999999999999 0  1.2 0.3999999999999999 0  1.4 0.3999999999999999 0  1.6 0.3999999999999999 0  1.8 0.3999999999999999 0  2 0.3999999999999999 0  -2 0.6000000000000001 0  -1.8 0.6000000000000001 0  -1.6 0.6000000000000001 0  -1.4 0.6000000000000001 0  -1.2 0.6000000000000001 0  -1 0.6000000000000001 0  -0.8 0.6000000000000001 0  -0.6000000000000001 0.6000000000000001 0  -0.3999999999999999 0.6000000000000001 0  -0.2 0.6000000000000001 0  0 0.6000000000000001 0  0.2000000000000002 0.6000000000000001 0  0.3999999999999999 0.6000000000000001 0  0.6000000000000001 0.6000000000000001 0  0.7999999999999998 0.6000000000000001 0  1 0.6000000000000001 0  1.2 0.6000000000000001 0  1.4 0.6000000000000001 0  1.6 0.6000000000000001 0  1.8 0.6000000000000001 0  2 0.6000000000000001 0  -2 0.7999999999999998 0  -1.8 0.7999999999999998 0  -1.6 0.7999999999999998 0  -1.4 0.7999999999999998 0  -1.2 0.7999999999999998 0  -1 0.7999999999999998 0  -0.8 0.7999999999999998 0  -0.6000000000000001 0.7999999999999998 0  -0.3999999999999999 0.7999999999999998 0  -0.2 0.7999999999999998 0  0 0.7999999999999998 0  0.2000000000000002 0.7999999999999998 0  0.3999999999999999 0.7999999999999998 0  0.6000000000000001 0.7999999999999998 0  0.7999999999999998 0.7999999999999998 0  1 0.7999999999999998 0  1.2 0.7999999999999998 0  1.4 0.7999999999999998 0  1.6 0.7999999999999998 0  1.8 0.7999999999999998 0  2 0.7999999999999998 0  -2 1 0  -1.8 1 0  -1.6 1 0  -1.4 1 0  -1.2 1 0  -1 1 0  -0.8 1 0  -0.6000000000000001 1 0  -0.3999999999999999 1 0  -0.2 1 0  0 1 0  0.2000000000000002 1 0  0.3999999999999999 1 0  0.6000000000000001 1 0  0.7999999999999998 1 0  1 1 0  1.2 1 0  1.4 1 0  1.6 1 0  1.8 1 0  2 1 0  -2 1.2 0  -1.8 1.2 0  -1.6 1.2 0  -1.4 1.2 0  -1.2 1.2 0  -1 1.2 0  -0.8 1.2 0  -0.6000000000000001 1.2 0  -0.3999999999999999 1.2 0  -0.2 1.2 0  0 1.2 0  0.2000000000000002 1.2 0  0.3999999999999999 1.2 0  0.6000000000000001 1.2 0  0.7999999999999998 1.2 0  1 1.2 0  1.2 1.2 0  1.4 1.2 0  1.6 1.2 0  1.8 1.2 0  2 1.2 0  -2 1.4 0  -1.8 1.4 0  -1.6 1.4 0  -1.4 1.4 0  -1.2 1.4 0  -1 1.4 0  -0.8 1.4 0  -0.6000000000000001 1.4 0  -0.3999999999999999 1.4 0  -0.2 1.4 0  0 1.4 0  0.2000000000000002 1.4 0  0.3999999999999999 1.4 0  0.6000000000000001 1.4 0  0.7999999999999998 1.4 0  1 1.4 0  1.2 1.4 0  1.4 1.4 0  1.6 1.4 0  1.8 1.4 0  2 1.4 0  -2 1.6 0  -1.8 1.6 0  -1.6 1.6 0  -1.4 1.6 0  -1.2 1.6 0  -1 1.6 0  -0.8 1.6 0  -0.6000000000000001 1.6 0  -0.3999999999999999 1.6 0  -0.2 1.6 0  0 1.6 0  0.2000000000000002 1.6 0  0.3999999999999999 1.6 0  0.6000000000000001 1.6 0  0.7999999999999998 1.6 0  1 1.6 0  1.2 1.6 0  1.4 1.6 0  1.6 1.6 0  1.8 1.6 0  2 1.6 0  -2 1.8 0  -1.8 1.8 0  -1.6 1.8 0  -1.4 1.8 0  -1.2 1.8 0  -1 1.8 0  -0.8 1.8 0  -0.6000000000000001 1.8 0  -0.3999999999999999 1.8 0  -0.2 1.8 0  0 1.8 0  0.2000000000000002 1.8 0  0.3999999999999999 1.8 0  0.6000000000000001 1.8 0  0.7999999999999998 1.8 0  1 1.8 0  1.2 1.8 0  1.4 1.8 0  1.6 1.8 0  1.8 1.8 0  2 1.8 0  -2 2 0  -1.8 2 0  -1.6 2 0  -1.4 2 0  -1.2 2 0  -1 2 0  -0.8 2 0  -0.6000000000000001 2 0  -0.3999999999999999 2 0  -0.2 2 0  0 2 0  0.2000000000000002 2 0  0.3999999999999999 2 0  0.6000000000000001 2 0  0.7999999999999998 2 0  1 2 0  1.2 2 0  1.4 2 0  1.6 2 0  1.8 2 0  2 2 0  </DataArray>
</Points>
<Cells>
[...]
<PointData  Scalars="f_8"> 
<DataArray  type="Float64"  Name="f_8"  format="ascii">9.5562843524286900e-02  9.3423301914027118e-02  8.8267805220287307e-02  8.0592543519231438e-02  7.1118018489845294e-02  6.0666994572798616e-02  5.0042763606161812e-02  3.9929820025676278e-02  3.0831212502908194e-02  2.3046604300152443e-02  1.6685791922292602e-02  1.1706442139652311e-02  7.9629177771801968e-03  5.2546760769644719e-03  3.3664170815556650e-03  2.0963718594850956e-03  1.2726684944069455e-03  7.6001299480153825e-04  4.5993657061728827e-04  3.0789889347318126e-04  2.7002242952867703e-04  9.4817214789054347e-02  9.3131335551327507e-02  8.8288486090783297e-02  8.0809782706138991e-02  7.1432561193385313e-02  6.0997431018965313e-02  5.0329191099501423e-02  4.0136083833646689e-02  3.0943903045504761e-02  2.3070838516419345e-02  1.6638983042437581e-02  1.1611673490108018e-02  7.8433131521548540e-03  5.1295754950985107e-03  3.2495165862715162e-03  1.9954826067153301e-03  1.1904820358352745e-03  6.9520239464634893e-04  4.0798459602029092e-04  2.6111088803701079e-04  2.1614399377038653e-04  9.4776818336407886e-02  9.3122825522492403e-02  8.8336157154478220e-02  8.0907185479642874e-02  7.1557139479158330e-02  6.1121866211090933e-02  5.0429668818261109e-02  4.0197220366966727e-02  3.0960358235966969e-02  2.3046196115668733e-02  1.6582918549018926e-02  1.1536557227759599e-02  7.7612051557520642e-03  5.0501804239677208e-03  3.1792452489799376e-03  1.9374425542776747e-03  1.1450534096293069e-03  6.6083961775091388e-04  3.8197356222223938e-04  2.4015556788978319e-04  1.9683163489099930e-04  9.4818367660250091e-02  9.3167375328504512e-02  8.8386605714170854e-02  8.0961541840208123e-02  7.1609449323264115e-02  6.1164654272219780e-02  5.0456539417594259e-02  4.0204707518761068e-02  3.0948609939877414e-02  2.3018540300397013e-02  1.6544684194444808e-02  1.1493651018935125e-02  7.7188830566690455e-03  5.0122755438862824e-03  3.1479092941361165e-03  1.9133007627368046e-03  1.1275959782826286e-03  6.4887194221298437e-04  3.7399577594595724e-04  2.3460668042834686e-04  1.9219031584839468e-04  9.4845148895122217e-02  9.3194036258699736e-02  8.8412171180230537e-02  8.0984475957690566e-02  7.1627816177818313e-02  6.1176624463238093e-02  5.0460971780958236e-02  4.0201542465991433e-02  3.0938927673603428e-02  2.3004289251890749e-02  1.6528204975676614e-02  1.1477169938819398e-02  7.7041248080824713e-03  5.0002740480476898e-03  3.1390166015332881e-03  1.9073366409859823e-03  1.1240583810742965e-03  6.4713705462436405e-04  3.7346217684738892e-04  2.3476674620298433e-04  1.9263369399065541e-04  9.4853881750559060e-02  9.3202522693361933e-02  8.8419820589566475e-02  8.0990700799090806e-02  7.1632108299164929e-02  6.1178666915236372e-02  5.0460737743172106e-02  4.0199330814440194e-02  3.0935310962077862e-02  2.2999987544274181e-02  1.6523928205381219e-02  1.1473479800715166e-02  7.7013541002711435e-03  4.9985161575849110e-03  3.1381730934013389e-03  1.9071961128528791e-03  1.1243778020652432e-03  6.4770465392231444e-04  3.7413262209402284e-04  2.3546936554895306e-04  1.9335992810225216e-04  9.4855367333606985e-02  9.3203907134642799e-02  8.8420964542593364e-02  8.0991489727045798e-02  7.1632473464583471e-02  6.1178603651524409e-02  5.0460312824939159e-02  4.0198672423357992e-02  3.0934581111334746e-02  2.2999344441318705e-02  1.6523490652962169e-02  1.1473304942298342e-02  7.7014342483795887e-03  4.9987931028282672e-03  3.1385626318692459e-03  1.9076136430760812e-03  1.1247577174944075e-03  6.4801025277872707e-04  3.7435724773539564e-04  2.3563191533154253e-04  1.9349821219993504e-04  9.4855391307190687e-02  9.3203905929760938e-02  8.8420927190881404e-02  8.0991412486018891e-02  7.1632362140056749e-02  6.1178474075921210e-02  5.0460188613583923e-02  4.0198579898068083e-02  3.0934542517298214e-02  2.2999371620472574e-02  1.6523581490996836e-02  1.1473443962762413e-02  7.7015971085911024e-03  4.9989532551760014e-03  3.1386977526076817e-03  1.9077098230639196e-03  1.1248105456508424e-03  6.4802320384935695e-04  3.7433866802785818e-04  2.3559212910681201e-04  1.9344790685754139e-04  9.4855356335561969e-02  9.3203867970906282e-02  8.8420888307035719e-02  8.0991375691606096e-02  7.1632331122290699e-02  6.1178452606974888e-02  5.0460179698827753e-02  4.0198584844884595e-02  3.0934560237823060e-02  2.2999398500901547e-02  1.6523612008635499e-02  1.1473471947724067e-02  7.7016172624914045e-03  4.9989624056991817e-03  3.1386954160357570e-03  1.9076979202972755e-03  1.1247924343669856e-03  6.4800240737669732e-04  3.7431772809176775e-04  2.3557190747525023e-04  1.9342749294597823e-04  9.4855354401111314e-02  9.3203866326370136e-02  8.8420887349912769e-02  8.0991375794464318e-02  7.1632332529266263e-02  6.1178455326342314e-02  5.0460183422849400e-02  4.0198588934828826e-02  3.0934563805518345e-02  2.2999400592066951e-02  1.6523611851746854e-02  1.1473469193211870e-02  7.7016121240939747e-03  4.9989556424394933e-03  3.1386881516596750e-03  1.9076913596274506e-03  1.1247875713547475e-03  6.4799981095002579e-04  3.7431744693233645e-04  2.3557348052531105e-04  1.9343001894891462e-04  9.4855355262836269e-02  9.3203867325701351e-02  8.8420888449125198e-02  8.0991376931644710e-02  7.1632333616519162e-02  6.1178456253986893e-02  5.0460184072585706e-02  4.0198589202651624e-02  3.0934563631240503e-02  2.2999399987583380e-02  1.6523610916850583e-02  1.1473468108660954e-02  7.7016111182116580e-03  4.9989549382055591e-03  3.1386879112704860e-03  1.9076916472749272e-03  1.1247883494485170e-03  6.4800097180648037e-04  3.7431886672843306e-04  2.3557507177892484e-04  1.9343175650207868e-04  9.4855355986720319e-02  9.3203867932918086e-02  8.8420888859095118e-02  8.0991377103466003e-02  7.1632333546509330e-02  6.1178455971330044e-02  5.0460183633182921e-02  4.0198588680940388e-02  3.0934563109973990e-02  2.2999399546113380e-02  1.6523610619114035e-02  1.1473467992666435e-02  7.7016111891816171e-03  4.9989551673918784e-03  3.1386882415817123e-03  1.9076920052648028e-03  1.1247886614014239e-03  6.4800118040272731e-04  3.7431894468899023e-04  2.3557502992834427e-04  1.9343164510198749e-04  9.4855360230138894e-02  9.3203871569791777e-02  8.8420891991921532e-02  8.0991379781833281e-02  7.1632335748032627e-02  6.1178457622186481e-02  5.0460184651636396e-02  4.0198589023701055e-02  3.0934562804078847e-02  2.2999398696558985e-02  1.6523609391963283e-02  1.1473466581588555e-02  7.7016097777049758e-03  4.9989538984896251e-03  3.1386872015761653e-03  1.9076912229471932e-03  1.1247881184435408e-03  6.4800082720971623e-04  3.7431871674091928e-04  2.3557486197054833e-04  1.9343148249164685e-04  9.4855333477975104e-02  9.3203847317627875e-02  8.8420873389886384e-02  8.0991368653072923e-02  7.1632332567580573e-02  6.1178461679249813e-02  5.0460194346675473e-02  4.0198602248493857e-02  3.0934577347166779e-02  2.2999412609458404e-02  1.6523621253691903e-02  1.1473475619303907e-02  7.7016158374449799e-03  4.9989572989525381e-03  3.1386885298671824e-03  1.9076911354843293e-03  1.1247871946139416e-03  6.4799949721277672e-04  3.7431725887369563e-04  2.3557344547813896e-04  1.9343022269743124e-04  9.4855133473519315e-02  9.3203665534188060e-02  8.8420713943381260e-02  8.0991234224532110e-02  7.1632225363811461e-02  6.1178383619089713e-02  5.0460146513413358e-02  4.0198583997947748e-02  3.0934585631472878e-02  2.2999441955069703e-02  1.6523664494338976e-02  1.1473525130026774e-02  7.7016648261670094e-03  4.9990007497309622e-03  3.1387235917184012e-03  1.9077169853807757e-03  1.1248045633832522e-03  6.4801008677067872e-04  3.7432321685447738e-04  2.3557695384110656e-04  1.9343315992907055e-04  9.4855278019870232e-02  9.3203805501977488e-02  8.8420761722949853e-02  8.0991127285325967e-02  7.1631937761497219e-02  6.1177929798740371e-02  5.0459575468573249e-02  4.0197965103517280e-02  3.0933990645863402e-02  2.2998928889315731e-02  1.6523267775772080e-02  1.1473253658971982e-02  7.7015066487092351e-03  4.9989313355641666e-03  3.1387144842879825e-03  1.9077425038884265e-03  1.1248455637460045e-03  6.4805489992841988e-04  3.7436647239314045e-04  2.3561709623571620e-04  1.9346930675866232e-04  9.4860874590660088e-02  9.3209094126155717e-02  8.8425176066889655e-02  8.0994198316503188e-02  7.1633361435573403e-02  6.1177625762303116e-02  5.0457704816754288e-02  4.0194892356020265e-02  3.0930199612238377e-02  2.2994919760128747e-02  1.6519466443200653e-02  1.1469955216740803e-02  7.6988599199184346e-03  4.9969575560094223e-03  3.1373455953899250e-03  1.9068636867898593e-03  1.1243306074774481e-03  6.4778868821545918e-04  3.7425385855631606e-04  2.3558062063606125e-04  1.9343971035681881e-04  9.4886401453791791e-02  9.3233753617694995e-02  8.8447584509452448e-02  8.1012721209601624e-02  7.1646398948104012e-02  6.1184053678649125e-02  5.0457228525015774e-02  4.0188158861857733e-02  3.0918641406597325e-02  2.2980411524009522e-02  1.6503925739690246e-02  1.1455008382856784e-02  7.6856451084800432e-03  4.9860776032571285e-03  3.1289377887779280e-03  1.9007323546635210e-03  1.1200900632828484e-03  6.4497958926144721e-04  3.7241562903154996e-04  2.3427950769956785e-04  1.9226378456768203e-04  9.4938794568526608e-02  9.3287938853296878e-02  8.8504625571947618e-02  8.1069319592839681e-02  7.1696468959512774e-02  6.1221170589871358e-02  5.0476793033360820e-02  4.0188627612495045e-02  3.0901658413616202e-02  2.2950057157047558e-02  1.6465506676275027e-02  1.1413830524097912e-02  7.6460901295312524e-03  4.9511230261841998e-03  3.1000959806152749e-03  1.8782812818307292e-03  1.1034374091895853e-03  6.3302503424098641e-04  3.6382675600546026e-04  2.2765210037252670e-04  1.8618576652254241e-04  9.4924287571209659e-02  9.3306950503595554e-02  8.8575770345450097e-02  8.1183244739617882e-02  7.1829863138312966e-02  6.1347556619675697e-02  5.0574201565113525e-02  4.0243914794451212e-02  3.0911583523199920e-02  2.2919788854150157e-02  1.6405622264367356e-02  1.1336944017349370e-02  7.5640088429980911e-03  4.8730243628428704e-03  3.0318009955264671e-03  1.8224015012411417e-03  1.0600336518471701e-03  6.0042253575421560e-04  3.3932565375527346e-04  2.0800224052608851e-04  1.6783178867489494e-04  9.4191881175523004e-02  9.3020617931372340e-02  8.8601406051443135e-02  8.1408791590837332e-02  7.2157073753262205e-02  6.1693510916450464e-02  5.0876053161793729e-02  4.0462429742445342e-02  3.1031213997792524e-02  2.2945006374872890e-02  1.6354647224072726e-02  1.1234637819318176e-02  7.4355860155442604e-03  4.7396482616252119e-03  2.9083799167932494e-03  1.7172783309922107e-03  9.7590377242625075e-04  5.3572311560591568e-04  2.8941942275891117e-04  1.6559701358237599e-04  1.2210426384334246e-04  </DataArray> 
</PointData> 
</Piece>
</UnstructuredGrid>
</VTKFile>