<?xml version="1.0"?>
<VTKFile type="UnstructuredGrid"  version="0.1"  >
<UnstructuredGrid>
<Piece  NumberOfPoints="441" NumberOfCells="800">
<Points>
<DataArray  type="Float64"  NumberOfComponents="3"  format="ascii">-2 -2 0  -1.8 -2 0  -1.6 -2 0  -1.4 -2 0  -1.2 -2 0  -1 -2 0  -0.8 -2 0  -0.6000000000000001 -2 0  -0.3999999999999999 -2 0  -0.2 -2 0  0 -2 0  0.2000000000000002 -2 0  0.3999999999999999 -2 0  0.6000000000000001 -2 0  0.7999999999999998 -2 0  1 -2 0  1.2 -2 0  1.4 -2 0  1.6 -2 0  1.8 -2 0  2 -2 0  -2 -1.8 0  -1.8 -1.8 0  -1.6 -1.8 0  -1.4 -1.8 0  -1.2 -1.8 0  -1 -1.8 0  -0.8 -1.8 0  -0.6000000000000001 -1.8 0  -0.3999999999999999 -1.8 0  -0.2 -1.8 0  0 -1.8 0  0.2000000000000002 -1.8 0  0.3999999999999999 -1.8 0  0.6000000000000001 -1.8 0  0.7999999999999998 -1.8 0  1 -1.8 0  1.2 -1.8 0  1.4 -1.8 0  1.6 -1.8 0  1.8 -1.8 0  2 -1.8 0  -2 -1.6 0  -1.8 -1.6 0  -1.6 -1.6 0  -1.4 -1.6 0  -1.2 -1.6 0  -1 -1.6 0  -0.8 -1.6 0  -0.6000000000000001 -1.6 0  -0.3999999999999999 -1.6 0  -0.2 -1.6 0  0 -1.6 0  0.2000000000000002 -1.6 0  0.3999999999999999 -1.6 0  0.6000000000000001 -1.6 0  0.7999999999999998 -1.6 0  1 -1.6 0  1.2 -1.6 0  1.4 -1.6 0  1.6 -1.6 0  1.8 -1.6 0  2 -1.6 0  -2 -1.4 0  -1.8 -1.4 0  -1.6 -1.4 0  -1.4 -1.4 0  -1.2 -1.4 0  -1 -1.4 0  -0.8 -1.4 0  -0.6000000000000001 -1.4 0  -0.3999999999999999 -1.4 0  -0.2 -1.4 0  0 -1.4 0  0.2000000000000002 -1.4 0  0.3999999999999999 -1.4 0  0.6000000000000001 -1.4 0  0.7999999999999998 -1.4 0  1 -1.4 0  1.2 -1.4 0  1.4 -1.4 0  1.6 -1.4 0  1.8 -1.4 0  2 -1.4 0  -2 -1.2 0  -1.8 -1.2 0  -1.6 -1.2 0  -1.4 -1.2 0  -1.2 -1.2 0  -1 -1.2 0  -0.8 -1.2 0  -0.6000000000000001 -1.2 0  -0.3999999999999999 -1.2 0  -0.2 -1.2 0  0 -1.2 0  0.2000000000000002 -1.2 0  0.3999999999999999 -1.2 0  0.6000000000000001 -1.2 0  0.7999999999999998 -1.2 0  1 -1.2 0  1.2 -1.2 0  1.4 -1.2 0  1.6 -1.2 0  1.8 -1.2 0  2 -1.2 0  -2 -1 0  -1.8 -1 0  -1.6 -1 0  -1.4 -1 0  -1.2 -1 0  -1 -1 0  -0.8 -1 0  -0.6000000000000001 -1 0  -0.3999999999999999 -1 0  -0.2 -1 0  0 -1 0  0.2000000000000002 -1 0  0.3999999999999999 -1 0  0.6000000000000001 -1 0  0.7999999999999998 -1 0  1 -1 0  1.2 -1 0  1.4 -1 0  1.6 -1 0  1.8 -1 0  2 -1 0  -2 -0.8 0  -1.8 -0.8 0  -1.6 -0.8 0  -1.4 -0.8 0  -1.2 -0.8 0  -1 -0.8 0  -0.8 -0.8 0  -0.6000000000000001 -0.8 0  -0.3999999999999999 -0.8 0  -0.2 -0.8 0  0 -0.8 0  0.2000000000000002 -0.8 0  0.3999999999999999 -0.8 0  0.6000000000000001 -0.8 0  0.7999999999999998 -0.8 0  1 -0.8 0  1.2 -0.8 0  1.4 -0.8 0  1.6 -0.8 0  1.8 -0.8 0  2 -0.8 0  -2 -0.6000000000000001 0  -1.8 -0.6000000000000001 0  -1.6 -0.6000000000000001 0  -1.4 -0.6000000000000001 0  -1.2 -0.6000000000000001 0  -1 -0.6000000000000001 0  -0.8 -0.6000000000000001 0  -0.6000000000000001 -0.6000000000000001 0  -0.3999999999999999 -0.6000000000000001 0  -0.2 -0.6000000000000001 0  0 -0.6000000000000001 0  0.2000000000000002 -0.6000000000000001 0  0.3999999999999999 -0.6000000000000001 0  0.6000000000000001 -0.6000000000000001 0  0.7999999999999998 -0.6000000000000001 0  1 -0.6000000000000001 0  1.2 -0.6000000000000001 0  1.4 -0.6000000000000001 0  1.6 -0.6000000000000001 0  1.8 -0.6000000000000001 0  2 -0.6000000000000001 0  -2 -0.3999999999999999 0  -1.8 -0.3999999999999999 0  -1.6 -0.3999999999999999 0  -1.4 -0.3999999999999999 0  -1.2 -0.3999999999999999 0  -1 -0.3999999999999999 0  -0.8 -0.3999999999999999 0  -0.6000000000000001 -0.3999999999999999 0  -0.3999999999999999 -0.3999999999999999 0  -0.2 -0.3999999999999999 0  0 -0.3999999999999999 0  0.2000000000000002 -0.3999999999999999 0  0.3999999999999999 -0.3999999999999999 0  0.6000000000000001 -0.3999999999999999 0  0.7999999999999998 -0.3999999999999999 0  1 -0.3999999999999999 0  1.2 -0.3999999999999999 0  1.4 -0.3999999999999999 0  1.6 -0.3999999999999999 0  1.8 -0.3999999999999999 0  2 -0.3999999999999999 0  -2 -0.2 0  -1.8 -0.2 0  -1.6 -0.2 0  -1.4 -0.2 0  -1.2 -0.2 0  -1 -0.2 0  -0.8 -0.2 0  -0.6000000000000001 -0.2 0  -0.3999999999999999 -0.2 0  -0.2 -0.2 0  0 -0.2 0  0.2000000000000002 -0.2 0  0.3999999999999999 -0.2 0  0.6000000000000001 -0.2 0  0.7999999999999998 -0.2 0  1 -0.2 0  1.2 -0.2 0  1.4 -0.2 0  1.6 -0.2 0  1.8 -0.2 0  2 -0.2 0  -2 0 0  -1.8 0 0  -1.6 0 0  -1.4 0 0  -1.2 0 0  -1 0 0  -0.8 0 0  -0.6000000000000001 0 0  -0.3999999999999999 0 0  -0.2 0 0  0 0 0  0.2000000000000002 0 0  0.3999999999999999 0 0  0.6000000000000001 0 0  0.7999999999999998 0 0  1 0 0  1.2 0 0  1.4 0 0  1.6 0 0  1.8 0 0  2 0 0  -2 0.2000000000000002 0  -1.8 0.2000000000000002 0  -1.6 0.2000000000000002 0  -1.4 0.2000000000000002 0  -1.2 0.2000000000000002 0  -1 0.2000000000000002 0  -0.8 0.2000000000000002 0  -0.6000000000000001 0.2000000000000002 0  -0.3999999999999999 0.2000000000000002 0  -0.2 0.2000000000000002 0  0 0.2000000000000002 0  0.2000000000000002 0.2000000000000002 0  0.3999999999999999 0.2000000000000002 0  0.6000000000000001 0.2000000000000002 0  0.7999999999999998 0.2000000000000002 0  1 0.2000000000000002 0  1.2 0.2000000000000002 0  1.4 0.2000000000000002 0  1.6 0.2000000000000002 0  1.8 0.2000000000000002 0  2 0.2000000000000002 0  -2 0.3999999999999999 0  -1.8 0.3999999999999999 0  -1.6 0.3999999999999999 0  -1.4 0.3999999999999999 0  -1.2 0.3999999999999999 0  -1 0.3999999999999999 0  -0.8 0.3999999999999999 0  -0.6000000000000001 0.3999999999999999 0  -0.3999999999999999 0.3999999999999999 0  -0.2 0.3999999999999999 0  0 0.3999999999999999 0  0.2000000000000002 0.3999999999999999 0  0.3999999999999999 0.3999999999999999 0  0.6000000000000001 0.3999999999999999 0  0.7999999999999998 0.3999999999999999 0  1 0.3999999999999999 0  1.2 0.3999999999999999 0  1.4 0.3999999999999999 0  1.6 0.3999999999999999 0  1.8 0.3999999999999999 0  2 0.3999999999999999 0  -2 0.6000000000000001 0  -1.8 0.6000000000000001 0  -1.6 0.6000000000000001 0  -1.4 0.6000000000000001 0  -1.2 0.6000000000000001 0  -1 0.6000000000000001 0  -0.8 0.6000000000000001 0  -0.6000000000000001 0.6000000000000001 0  -0.3999999999999999 0.6000000000000001 0  -0.2 0.6000000000000001 0  0 0.6000000000000001 0  0.2000000000000002 0.6000000000000001 0  0.3999999999999999 0.6000000000000001 0  0.6000000000000001 0.6000000000000001 0  0.7999999999999998 0.6000000000000001 0  1 0.6000000000000001 0  1.2 0.6000000000000001 0  1.4 0.6000000000000001 0  1.6 0.6000000000000001 0  1.8 0.6000000000000001 0  2 0.6000000000000001 0  -2 0.7999999999999998 0  -1.8 0.7999999999999998 0  -1.6 0.7999999999999998 0  -1.4 0.7999999999999998 0  -1.2 0.7999999999999998 0  -1 0.7999999999999998 0  -0.8 0.7999999999999998 0  -0.6000000000000001 0.7999999999999998 0  -0.3999999999999999 0.7999999999999998 0  -0.2 0.7999999999999998 0  0 0.7999999999999998 0  0.2000000000000002 0.7999999999999998 0  0.3999999999999999 0.7999999999999998 0  0.6000000000000001 0.7999999999999998 0  0.7999999999999998 0.7999999999999998 0  1 0.7999999999999998 0  1.2 0.7999999999999998 0  1.4 0.7999999999999998 0  1.6 0.7999999999999998 0  1.8 0.7999999999999998 0  2 0.7999999999999998 0  -2 1 0  -1.8 1 0  -1.6 1 0  -1.4 1 0  -1.2 1 0  -1 1 0  -0.8 1 0  -0.6000000000000001 1 0  -0.3999999999999999 1 0  -0.2 1 0  0 1 0  0.2000000000000002 1 0  0.3999999999999999 1 0  0.6000000000000001 1 0  0.7999999999999998 1 0  1 1 0  1.2 1 0  1.4 1 0  1.6 1 0  1.8 1 0  2 1 0  -2 1.2 0  -1.8 1.2 0  -1.6 1.2 0  -1.4 1.2 0  -1.2 1.2 0  -1 1.2 0  -0.8 1.2 0  -0.6000000000000001 1.2 0  -0.3999999999999999 1.2 0  -0.2 1.2 0  0 1.2 0  0.2000000000000002 1.2 0  0.3999999999999999 1.2 0  0.6000000000000001 1.2 0  0.7999999999999998 1.2 0  1 1.2 0  1.2 1.2 0  1.4 1.2 0  1.6 1.2 0  1.8 1.2 0  2 1.2 0  -2 1.4 0  -1.8 1.4 0  -1.6 1.4 0  -1.4 1.4 0  -1.2 1.4 0  -1 1.4 0  -0.8 1.4 0  -0.6000000000000001 1.4 0  -0.3999999999999999 1.4 0  -0.2 1.4 0  0 1.4 0  0.2000000000000002 1.4 0  0.3999999999999999 1.4 0  0.6000000000000001 1.4 0  0.7999999999999998 1.4 0  1 1.4 0  1.2 1.4 0  1.4 1.4 0  1.6 1.4 0  1.8 1.4 0  2 1.4 0  -2 1.6 0  -1.8 1.6 0  -1.6 1.6 0  -1.4 1.6 0  -1.2 1.6 0  -1 1.6 0  -0.8 1.6 0  -0.6000000000000001 1.6 0  -0.3999999999999999 1.6 0  -0.2 1.6 0  0 1.6 0  0.2000000000000002 1.6 0  0.3999999999999999 1.6 0  0.6000000000000001 1.6 0  0.7999999999999998 1.6 0  1 1.6 0  1.2 1.6 0  1.4 1.6 0  1.6 1.6 0  1.8 1.6 0  2 1.6 0  -2 1.8 0  -1.8 1.8 0  -1.6 1.8 0  -1.4 1.8 0  -1.2 1.8 0  -1 1.8 0  -0.8 1.8 0  -0.6000000000000001 1.8 0  -0.3999999999999999 1.8 0  -0.2 1.8 0  0 1.8 0  0.2000000000000002 1.8 0  0.3999999999999999 1.8 0  0.6000000000000001 1.8 0  0.7999999999999998 1.8 0  1 1.8 0  1.2 1.8 0  1.4 1.8 0  1.6 1.8 0  1.8 1.8 0  2 1.8 0  -2 2 0  -1.8 2 0  -1.6 2 0  -1.4 2 0  -1.2 2 0  -1 2 0  -0.8 2 0  -0.6000000000000001 2 0  -0.3999999999999999 2 0  -0.2 2 0  0 2 0  0.2000000000000002 2 0  0.3999999999999999 2 0  0.6000000000000001 2 0  0.7999999999999998 2 0  1 2 0  1.2 2 0  1.4 2 0  1.6 2 0  1.8 2 0  2 2 0  </DataArray>
</Points>
<Cells>
[...]
<PointData  Scalars="f_8"> 
<DataArray  type="Float64"  Name="f_8"  format="ascii">9.7633312422514829e-03  9.8057596144952384e-03  9.8247065697626770e-03  9.8358117607736106e-03  9.8436109434804943e-03  9.8497100725072721e-03  9.8548098286144158e-03  9.8592790170591912e-03  9.8633452917157062e-03  9.8671700182825835e-03  9.8708826217804285e-03  9.8745992234025113e-03  9.8784355786604681e-03  9.8825200003720137e-03  9.8870119380633850e-03  9.8921361770713881e-03  9.8982573304575733e-03  9.9060697035432306e-03  9.9171695908772291e-03  9.9360871143643684e-03  9.9785585156296139e-03  1.0063385967060461e-02  1.0074551125494768e-02  1.0085750514464947e-02  1.0094594444222749e-02  1.0101578660554566e-02  1.0107311350878508e-02  1.0112211678485019e-02  1.0116554850018698e-02  1.0120531240677981e-02  1.0124284310154844e-02  1.0127932942707975e-02  1.0131585359448064e-02  1.0135349460436786e-02  1.0139343165932747e-02  1.0143708330010454e-02  1.0148633107410493e-02  1.0154390016823020e-02  1.0161395639461975e-02  1.0170257205171101e-02  1.0181470491481583e-02  1.0192595997420235e-02  1.0850259551059668e-02  1.0853774305869849e-02  1.0859794776648141e-02  1.0865902488284602e-02  1.0871438777631562e-02  1.0876350126714888e-02  1.0880741415021660e-02  1.0884739425541422e-02  1.0888459990188663e-02  1.0892005011332815e-02  1.0895466516334015e-02  1.0898931576059407e-02  1.0902486975015308e-02  1.0906223888459000e-02  1.0910242823861382e-02  1.0914657719099682e-02  1.0919593016468975e-02  1.0925150713325284e-02  1.0931272757286170e-02  1.0937289031815350e-02  1.0940750706237881e-02  1.2133824231130208e-02  1.2135022595747247e-02  1.2138248863635664e-02  1.2142233772644354e-02  1.2146320984889438e-02  1.2150251598476479e-02  1.2153958435164054e-02  1.2157454811267765e-02  1.2160784650172011e-02  1.2164002338121606e-02  1.2167165287208881e-02  1.2170331460121123e-02  1.2173558542188099e-02  1.2176903117118778e-02  1.2180418195508897e-02  1.2184145751929701e-02  1.2188096441445022e-02  1.2192199248377767e-02  1.2196189070400496e-02  1.2199399094015089e-02  1.2200547144487589e-02  1.3913383846669999e-02  1.3913470567112670e-02  1.3915019909038463e-02  1.3917418523640883e-02  1.3920213935939214e-02  1.3923144141756381e-02  1.3926080099033194e-02  1.3928970233818292e-02  1.3931804510623308e-02  1.3934594204347558e-02  1.3937360954008608e-02  1.3940130497747791e-02  1.3942928291452841e-02  1.3945775130245057e-02  1.3948680882329393e-02  1.3951633505558961e-02  1.3954578687635086e-02  1.3957383624059735e-02  1.3959781137603171e-02  1.3961312396728666e-02  1.3961359599380401e-02  1.6183030783433069e-02  1.6182164433089539e-02  1.6182429480043836e-02  1.6183517425181673e-02  1.6185137875417553e-02  1.6187076242355040e-02  1.6189192647334153e-02  1.6191402852485545e-02  1.6193659334339527e-02  1.6195937121767076e-02  1.6198223946830424e-02  1.6200513124002926e-02  1.6202797684559518e-02  1.6205064523439526e-02  1.6207287309373025e-02  1.6209416667632023e-02  1.6211366034041667e-02  1.6212992752119057e-02  1.6214079196610730e-02  1.6214332479146453e-02  1.6213444099621034e-02  1.8930094514476452e-02  1.8928134938495818e-02  1.8927170535214772e-02  1.8927028237401611e-02  1.8927513558667744e-02  1.8928453746356332e-02  1.8929711876733566e-02  1.8931185357581926e-02  1.8932798854204427e-02  1.8934496386033003e-02  1.8936234104836809e-02  1.8937973863525633e-02  1.8939677241051289e-02  1.8941299598376385e-02  1.8942783737602126e-02  1.8944052823700198e-02  1.8945002678699373e-02  1.8945494989453939e-02  1.8945356264633981e-02  1.8944392684095448e-02  1.8942434238418054e-02  2.2131738668786972e-02  2.2128469877907252e-02  2.2126196042490023e-02  2.2124801856985968e-02  2.2124140312987380e-02  2.2124061431422388e-02  2.2124428255706898e-02  2.2125122680924002e-02  2.2126045221812191e-02  2.2127111704215951e-02  2.2128248540912162e-02  2.2129387405647027e-02  2.2130459708393252e-02  2.2131391123910230e-02  2.2132096424725203e-02  2.2132475019017137e-02  2.2132408004693020e-02  2.2131758400028824e-02  2.2130377530671055e-02  2.2128121625263088e-02  2.2124880990065009e-02  2.5751174574326904e-02  2.5746399969673255e-02  2.5742713937586415e-02  2.5740021603087054e-02  2.5738192210857047e-02  2.5737079916756941e-02  2.5736539228815143e-02  2.5736433959140097e-02  2.5736640712973470e-02  2.5737048451828712e-02  2.5737555497221846e-02  2.5738065041220143e-02  2.5738480003184669e-02  2.5738697960492499e-02  2.5738606881243561e-02  2.5738082496511112e-02  2.5736988367160304e-02  2.5735179978717496e-02  2.5732514327616252e-02  2.5728865885620095e-02  2.5724147582059150e-02  2.9734217498681468e-02  2.9727819590750944e-02  2.9722667582763401e-02  2.9718666888196920e-02  2.9715682455752790e-02  2.9713557269002981e-02  2.9712128243478648e-02  2.9711237096633616e-02  2.9710735895444838e-02  2.9710488112451392e-02  2.9710366403417045e-02  2.9710248326266338e-02  2.9710011114497909e-02  2.9709526539385554e-02  2.9708656898018635e-02  2.9707253243648854e-02  2.9705157066946045e-02  2.9702206592289702e-02  2.9698248405363246e-02  2.9693153920912180e-02  2.9686838016316303e-02  3.4006757924221066e-02  3.3998743628580651e-02  3.3992172528869005e-02  3.3986936902750016e-02  3.3982882107223944e-02  3.3979827435430314e-02  3.3977584426184419e-02  3.3975969589798323e-02  3.3974811001045060e-02  3.3973949644990994e-02  3.3973236929550232e-02  3.3972529803151734e-02  3.3971684775274756e-02  3.3970552030511220e-02  3.3968970835076939e-02  3.3966767551792440e-02  3.3963757709866642e-02  3.3959753506131708e-02  3.3954577496927971e-02  3.3948081684610505e-02  3.3940168627498775e-02  3.8473663123610016e-02  3.8464197227286577e-02  3.8456392313566894e-02  3.8450114969649944e-02  3.8445176669763811e-02  3.8441361808106658e-02  3.8438450591938116e-02  3.8436233593453030e-02  3.8434518245688679e-02  3.8433129098177463e-02  3.8431903885971952e-02  3.8430687158576560e-02  3.8429322839688994e-02  3.8427646870555825e-02  3.8425481106818746e-02  3.8422629884788777e-02  3.8418881055417527e-02  3.8414013554436202e-02  3.8407813230630104e-02  3.8400096931168491e-02  3.8390741143202269e-02  4.3019541172151982e-02  4.3008965596958097e-02  4.3000275226077030e-02  4.2993293848328791e-02  4.2987781486604648e-02  4.2983476013479592e-02  4.2980122511414205e-02  4.2977488577972067e-02  4.2975368619449505e-02  4.2973581061506450e-02  4.2971961595431096e-02  4.2970354479100553e-02  4.2968603092211857e-02  4.2966540546532823e-02  4.2963981179035618e-02  4.2960714206405189e-02  4.2956501678639653e-02  4.2951083969885728e-02  4.2944196757442606e-02  4.2935602273265025e-02  4.2925132287865611e-02  4.7511653584507887e-02  4.7500490068944440e-02  4.7491438049212631e-02  4.7484248257850220e-02  4.7478602739984291e-02  4.7474179300872270e-02  4.7470687343868237e-02  4.7467879998479595e-02  4.7465552088219128e-02  4.7463531432845624e-02  4.7461667771741635e-02  4.7459821198212522e-02  4.7457850635628275e-02  4.7455602320827878e-02  4.7452898293431654e-02  4.7449525527093563e-02  4.7445227782375421e-02  4.7439704742658927e-02  4.7432626206707358e-02  4.7423670870068747e-02  4.7412593659017871e-02  5.1805046639209776e-02  5.1793984350589461e-02  5.1785275057825778e-02  5.1778535306796894e-02  5.1773325520406810e-02  5.1769248205488359e-02  5.1765983249417509e-02  5.1763286639134112e-02  5.1760974766275773e-02  5.1758906093680279e-02  5.1756964585207017e-02  5.1755045516260506e-02  5.1753042703194425e-02  5.1750835680923667e-02  5.1748275386151232e-02  5.1745167482578090e-02  5.1741254162670412e-02  5.1736199254177391e-02  5.1729589110506471e-02  5.1720972173535849e-02  5.1709962995131913e-02  5.5749695676646421e-02  5.5739576173854104e-02  5.5732108372109054e-02  5.5726643087649193e-02  5.5722549176033642e-02  5.5719343908969154e-02  5.5716699584925651e-02  5.5714406880745644e-02  5.5712334659614483e-02  5.5710398645846905e-02  5.5708539681325012e-02  5.5706708690700608e-02  5.5704854897317795e-02  5.5702913937233783e-02  5.5700792526201796e-02  5.5698346256349909e-02  5.5695347775047400e-02  5.5691446473746978e-02  5.5686133225207692e-02  5.5678752153364049e-02  5.5668641990015755e-02  5.9199141926334062e-02  5.9190986236735063e-02  5.9185914994281566e-02  5.9182725806942213e-02  5.9180503902020079e-02  5.9178703917672673e-02  5.9177047757375222e-02  5.9175415245949471e-02  5.9173769316829973e-02  5.9172112633893464e-02  5.9170464619431512e-02  5.9168849728535589e-02  5.9167290541795779e-02  5.9165800744213563e-02  5.9164373039000205e-02  5.9162955497854226e-02  5.9161407061210342e-02  5.9159421134467954e-02  5.9156415048033546e-02  5.9151431146421483e-02  5.9143236224849079e-02  6.2019752918256933e-02  6.2014992235404028e-02  6.2013924187253239e-02  6.2014207783235770e-02  6.2014613632620071e-02  6.2014665454378233e-02  6.2014259839393723e-02  6.2013448928678119e-02  6.2012338069709731e-02  6.2011043492176447e-02  6.2009678175349463e-02  6.2008350149710768e-02  6.2007165443044632e-02  6.2006230958188850e-02  6.2005652546144104e-02  6.2005520362324394e-02  6.2005865356570745e-02  6.2006554142548860e-02  6.2007065999311460e-02  6.2006106072754044e-02  6.2001261987100695e-02  6.4099241492035233e-02  6.4100802839636414e-02  6.4106262278702919e-02  6.4111357091310148e-02  6.4114960955014830e-02  6.4117066515853333e-02  6.4117965014905548e-02  6.4117980428981980e-02  6.4117399412020937e-02  6.4116463463328624e-02  6.4115379527424868e-02  6.4114335612193207e-02  6.4113517571637968e-02  6.4113125900373297e-02  6.4113391405282702e-02  6.4114585904221658e-02  6.4117014290041005e-02  6.4120942866169650e-02  6.4126325692525757e-02  6.4131958268485278e-02  6.4133418178373550e-02  6.5351745517557680e-02  6.5368891241062405e-02  6.5384943861913944e-02  6.5395831400425430e-02  6.5402581505293642e-02  6.5406461450148404e-02  6.5408400496676622e-02  6.5409045408498956e-02  6.5408858222015059e-02  6.5408185987779643e-02  6.5407308074988763e-02  6.5406471345316075e-02  6.5405920278717930e-02  6.5405927156746466e-02  6.5406827476077109e-02  6.5409067889940151e-02  6.5413277386632662e-02  6.5420367788475292e-02  6.5431591781628703e-02  6.5447945487935338e-02  6.5465086399006445e-02  6.5711155652578748e-02  6.5781865113703264e-02  6.5811807323013352e-02  6.5827026357529864e-02  6.5835452066390576e-02  6.5840116287852607e-02  6.5842473803597881e-02  6.5843360296706552e-02  6.5843320681855430e-02  6.5842745953252069e-02  6.5841943506345979e-02  6.5841182118164837e-02  6.5840727932429635e-02  6.5840880478677005e-02  6.5842017801335667e-02  6.5844667182683045e-02  6.5849642902154185e-02  6.5858376733533008e-02  6.5873883491960578e-02  6.5904123482485116e-02  6.5975488628081919e-02  </DataArray> 
</PointData> 
</Piece>
</UnstructuredGrid>
</VTKFile>