<?xml version="1.0"?>
<VTKFile type="UnstructuredGrid"  version="0.1"  >
<UnstructuredGrid>
<Piece  NumberOfPoints="441" NumberOfCells="800">
<Points>
<DataArray  type="Float64"  NumberOfComponents="3"  format="ascii">-2 -2 0  -1.8 -2 0  -1.6 -2 0  -1.4 -2 0  -1.2 -2 0  -1 -2 0  -0.8 -2 0  -0.6000000000000001 -2 0  -0.3999999999999999 -2 0  -0.2 -2 0  0 -2 0  0.2000000000000002 -2 0  0.3999999999999999 -2 0  0.6000000000000001 -2 0  0.7999999999999998 -2 0  1 -2 0  1.2 -2 0  1.4 -2 0  1.6 -2 0  1.8 -2 0  2 -2 0  -2 -1.8 0  -1.8 -1.8 0  -1.6 -1.8 0  -1.4 -1.8 0  -1.2 -1.8 0  -1 -1.8 0  -0.8 -1.8 0  -0.6000000000000001 -1.8 0  -0.3999999999999999 -1.8 0  -0.2 -1.8 0  0 -1.8 0  0.2000000000000002 -1.8 0  0.3999999999999999 -1.8 0  0.6000000000000001 -1.8 0  0.7999999999999998 -1.8 0  1 -1.8 0  1.2 -1.8 0  1.4 -1.8 0  1.6 -1.8 0  1.8 -1.8 0  2 -1.8 0  -2 -1.6 0  -1.8 -1.6 0  -1.6 -1.6 0  -1.4 -1.6 0  -1.2 -1.6 0  -1 -1.6 0  -0.8 -1.6 0  -0.6000000000000001 -1.6 0  -0.3999999999999999 -1.6 0  -0.2 -1.6 0  0 -1.6 0  0.2000000000000002 -1.6 0  0.3999999999999999 -1.6 0  0.6000000000000001 -1.6 0  0.7999999999999998 -1.6 0  1 -1.6 0  1.2 -1.6 0  1.4 -1.6 0  1.6 -1.6 0  1.8 -1.6 0  2 -1.6 0  -2 -1.4 0  -1.8 -1.4 0  -1.6 -1.4 0  -1.4 -1.4 0  -1.2 -1.4 0  -1 -1.4 0  -0.8 -1.4 0  -0.6000000000000001 -1.4 0  -0.3999999999999999 -1.4 0  -0.2 -1.4 0  0 -1.4 0  0.2000000000000002 -1.4 0  0.3999999999999999 -1.4 0  0.6000000000000001 -1.4 0  0.7999999999999998 -1.4 0  1 -1.4 0  1.2 -1.4 0  1.4 -1.4 0  1.6 -1.4 0  1.8 -1.4 0  2 -1.4 0  -2 -1.2 0  -1.8 -1.2 0  -1.6 -1.2 0  -1.4 -1.2 0  -1.2 -1.2 0  -1 -1.2 0  -0.8 -1.2 0  -0.6000000000000001 -1.2 0  -0.3999999999999999 -1.2 0  -0.2 -1.2 0  0 -1.2 0  0.2000000000000002 -1.2 0  0.3999999999999999 -1.2 0  0.6000000000000001 -1.2 0  0.7999999999999998 -1.2 0  1 -1.2 0  1.2 -1.2 0  1.4 -1.2 0  1.6 -1.2 0  1.8 -1.2 0  2 -1.2 0  -2 -1 0  -1.8 -1 0  -1.6 -1 0  -1.4 -1 0  -1.2 -1 0  -1 -1 0  -0.8 -1 0  -0.6000000000000001 -1 0  -0.3999999999999999 -1 0  -0.2 -1 0  0 -1 0  0.2000000000000002 -1 0  0.3999999999999999 -1 0  0.6000000000000001 -1 0  0.7999999999999998 -1 0  1 -1 0  1.2 -1 0  1.4 -1 0  1.6 -1 0  1.8 -1 0  2 -1 0  -2 -0.8 0  -1.8 -0.8 0  -1.6 -0.8 0  -1.4 -0.8 0  -1.2 -0.8 0  -1 -0.8 0  -0.8 -0.8 0  -0.6000000000000001 -0.8 0  -0.3999999999999999 -0.8 0  -0.2 -0.8 0  0 -0.8 0  0.2000000000000002 -0.8 0  0.3999999999999999 -0.8 0  0.6000000000000001 -0.8 0  0.7999999999999998 -0.8 0  1 -0.8 0  1.2 -0.8 0  1.4 -0.8 0  1.6 -0.8 0  1.8 -0.8 0  2 -0.8 0  -2 -0.6000000000000001 0  -1.8 -0.6000000000000001 0  -1.6 -0.6000000000000001 0  -1.4 -0.6000000000000001 0  -1.2 -0.6000000000000001 0  -1 -0.6000000000000001 0  -0.8 -0.6000000000000001 0  -0.6000000000000001 -0.6000000000000001 0  -0.3999999999999999 -0.6000000000000001 0  -0.2 -0.6000000000000001 0  0 -0.6000000000000001 0  0.2000000000000002 -0.6000000000000001 0  0.3999999999999999 -0.6000000000000001 0  0.6000000000000001 -0.6000000000000001 0  0.7999999999999998 -0.6000000000000001 0  1 -0.6000000000000001 0  1.2 -0.6000000000000001 0  1.4 -0.6000000000000001 0  1.6 -0.6000000000000001 0  1.8 -0.6000000000000001 0  2 -0.6000000000000001 0  -2 -0.3999999999999999 0  -1.8 -0.3999999999999999 0  -1.6 -0.3999999999999999 0  -1.4 -0.3999999999999999 0  -1.2 -0.3999999999999999 0  -1 -0.3999999999999999 0  -0.8 -0.3999999999999999 0  -0.6000000000000001 -0.3999999999999999 0  -0.3999999999999999 -0.3999999999999999 0  -0.2 -0.3999999999999999 0  0 -0.3999999999999999 0  0.2000000000000002 -0.3999999999999999 0  0.3999999999999999 -0.3999999999999999 0  0.6000000000000001 -0.3999999999999999 0  0.7999999999999998 -0.3999999999999999 0  1 -0.3999999999999999 0  1.2 -0.3999999999999999 0  1.4 -0.3999999999999999 0  1.6 -0.3999999999999999 0  1.8 -0.3999999999999999 0  2 -0.3999999999999999 0  -2 -0.2 0  -1.8 -0.2 0  -1.6 -0.2 0  -1.4 -0.2 0  -1.2 -0.2 0  -1 -0.2 0  -0.8 -0.2 0  -0.6000000000000001 -0.2 0  -0.3999999999999999 -0.2 0  -0.2 -0.2 0  0 -0.2 0  0.2000000000000002 -0.2 0  0.3999999999999999 -0.2 0  0.6000000000000001 -0.2 0  0.7999999999999998 -0.2 0  1 -0.2 0  1.2 -0.2 0  1.4 -0.2 0  1.6 -0.2 0  1.8 -0.2 0  2 -0.2 0  -2 0 0  -1.8 0 0  -1.6 0 0  -1.4 0 0  -1.2 0 0  -1 0 0  -0.8 0 0  -0.6000000000000001 0 0  -0.3999999999999999 0 0  -0.2 0 0  0 0 0  0.2000000000000002 0 0  0.3999999999999999 0 0  0.6000000000000001 0 0  0.7999999999999998 0 0  1 0 0  1.2 0 0  1.4 0 0  1.6 0 0  1.8 0 0  2 0 0  -2 0.2000000000000002 0  -1.8 0.2000000000000002 0  -1.6 0.2000000000000002 0  -1.4 0.2000000000000002 0  -1.2 0.2000000000000002 0  -1 0.2000000000000002 0  -0.8 0.2000000000000002 0  -0.6000000000000001 0.2000000000000002 0  -0.3999999999999999 0.2000000000000002 0  -0.2 0.2000000000000002 0  0 0.2000000000000002 0  0.2000000000000002 0.2000000000000002 0  0.3999999999999999 0.2000000000000002 0  0.6000000000000001 0.2000000000000002 0  0.7999999999999998 0.2000000000000002 0  1 0.2000000000000002 0  1.2 0.2000000000000002 0  1.4 0.2000000000000002 0  1.6 0.2000000000000002 0  1.8 0.2000000000000002 0  2 0.2000000000000002 0  -2 0.3999999999999999 0  -1.8 0.3999999999999999 0  -1.6 0.3999999999999999 0  -1.4 0.3999999999999999 0  -1.2 0.3999999999999999 0  -1 0.3999999999999999 0  -0.8 0.3999999999999999 0  -0.6000000000000001 0.3999999999999999 0  -0.3999999999999999 0.3999999999999999 0  -0.2 0.3999999999999999 0  0 0.3999999999999999 0  0.2000000000000002 0.3999999999999999 0  0.3999999999999999 0.3999999999999999 0  0.6000000000000001 0.3999999999999999 0  0.7999999999999998 0.3999999999999999 0  1 0.3999999999999999 0  1.2 0.3999999999999999 0  1.4 0.3999999999999999 0  1.6 0.3999999999999999 0  1.8 0.3999999999999999 0  2 0.3999999999999999 0  -2 0.6000000000000001 0  -1.8 0.6000000000000001 0  -1.6 0.6000000000000001 0  -1.4 0.6000000000000001 0  -1.2 0.6000000000000001 0  -1 0.6000000000000001 0  -0.8 0.6000000000000001 0  -0.6000000000000001 0.6000000000000001 0  -0.3999999999999999 0.6000000000000001 0  -0.2 0.6000000000000001 0  0 0.6000000000000001 0  0.2000000000000002 0.6000000000000001 0  0.3999999999999999 0.6000000000000001 0  0.6000000000000001 0.6000000000000001 0  0.7999999999999998 0.6000000000000001 0  1 0.6000000000000001 0  1.2 0.6000000000000001 0  1.4 0.6000000000000001 0  1.6 0.6000000000000001 0  1.8 0.6000000000000001 0  2 0.6000000000000001 0  -2 0.7999999999999998 0  -1.8 0.7999999999999998 0  -1.6 0.7999999999999998 0  -1.4 0.7999999999999998 0  -1.2 0.7999999999999998 0  -1 0.7999999999999998 0  -0.8 0.7999999999999998 0  -0.6000000000000001 0.7999999999999998 0  -0.3999999999999999 0.7999999999999998 0  -0.2 0.7999999999999998 0  0 0.7999999999999998 0  0.2000000000000002 0.7999999999999998 0  0.3999999999999999 0.7999999999999998 0  0.6000000000000001 0.7999999999999998 0  0.7999999999999998 0.7999999999999998 0  1 0.7999999999999998 0  1.2 0.7999999999999998 0  1.4 0.7999999999999998 0  1.6 0.7999999999999998 0  1.8 0.7999999999999998 0  2 0.7999999999999998 0  -2 1 0  -1.8 1 0  -1.6 1 0  -1.4 1 0  -1.2 1 0  -1 1 0  -0.8 1 0  -0.6000000000000001 1 0  -0.3999999999999999 1 0  -0.2 1 0  0 1 0  0.2000000000000002 1 0  0.3999999999999999 1 0  0.6000000000000001 1 0  0.7999999999999998 1 0  1 1 0  1.2 1 0  1.4 1 0  1.6 1 0  1.8 1 0  2 1 0  -2 1.2 0  -1.8 1.2 0  -1.6 1.2 0  -1.4 1.2 0  -1.2 1.2 0  -1 1.2 0  -0.8 1.2 0  -0.6000000000000001 1.2 0  -0.3999999999999999 1.2 0  -0.2 1.2 0  0 1.2 0  0.2000000000000002 1.2 0  0.3999999999999999 1.2 0  0.6000000000000001 1.2 0  0.7999999999999998 1.2 0  1 1.2 0  1.2 1.2 0  1.4 1.2 0  1.6 1.2 0  1.8 1.2 0  2 1.2 0  -2 1.4 0  -1.8 1.4 0  -1.6 1.4 0  -1.4 1.4 0  -1.2 1.4 0  -1 1.4 0  -0.8 1.4 0  -0.6000000000000001 1.4 0  -0.3999999999999999 1.4 0  -0.2 1.4 0  0 1.4 0  0.2000000000000002 1.4 0  0.3999999999999999 1.4 0  0.6000000000000001 1.4 0  0.7999999999999998 1.4 0  1 1.4 0  1.2 1.4 0  1.4 1.4 0  1.6 1.4 0  1.8 1.4 0  2 1.4 0  -2 1.6 0  -1.8 1.6 0  -1.6 1.6 0  -1.4 1.6 0  -1.2 1.6 0  -1 1.6 0  -0.8 1.6 0  -0.6000000000000001 1.6 0  -0.3999999999999999 1.6 0  -0.2 1.6 0  0 1.6 0  0.2000000000000002 1.6 0  0.3999999999999999 1.6 0  0.6000000000000001 1.6 0  0.7999999999999998 1.6 0  1 1.6 0  1.2 1.6 0  1.4 1.6 0  1.6 1.6 0  1.8 1.6 0  2 1.6 0  -2 1.8 0  -1.8 1.8 0  -1.6 1.8 0  -1.4 1.8 0  -1.2 1.8 0  -1 1.8 0  -0.8 1.8 0  -0.6000000000000001 1.8 0  -0.3999999999999999 1.8 0  -0.2 1.8 0  0 1.8 0  0.2000000000000002 1.8 0  0.3999999999999999 1.8 0  0.6000000000000001 1.8 0  0.7999999999999998 1.8 0  1 1.8 0  1.2 1.8 0  1.4 1.8 0  1.6 1.8 0  1.8 1.8 0  2 1.8 0  -2 2 0  -1.8 2 0  -1.6 2 0  -1.4 2 0  -1.2 2 0  -1 2 0  -0.8 2 0  -0.6000000000000001 2 0  -0.3999999999999999 2 0  -0.2 2 0  0 2 0  0.2000000000000002 2 0  0.3999999999999999 2 0  0.6000000000000001 2 0  0.7999999999999998 2 0  1 2 0  1.2 2 0  1.4 2 0  1.6 2 0  1.8 2 0  2 2 0  </DataArray>
</Points>
<Cells>
[...]
<PointData  Scalars="f_8"> 
<DataArray  type="Float64"  Name="f_8"  format="ascii">9.1604665675549757e-02  8.9718919911189229e-02  8.5158866707916656e-02  7.8326137709413698e-02  6.9813765609756856e-02  6.0311955562348966e-02  5.0511758093961891e-02  4.1022965692039136e-02  3.2317778385105453e-02  2.4704917683196541e-02  1.8332111649402186e-02  1.3209943953923321e-02  9.2477838396398289e-03  6.2927953912857116e-03  4.1651112477429824e-03  2.6851420366497845e-03  1.6917807716157181e-03  1.0523764051392421e-03  6.6658533797036201e-04  4.6664346245670719e-04  4.1646641364281742e-04  9.0931924001421999e-02  8.9444347626715812e-02  8.5158582152784754e-02  7.8501350176709492e-02  7.0081379662697882e-02  6.0603482077556128e-02  5.0775311353920466e-02  4.1224985167106758e-02  3.2442767968019433e-02  2.4752866356840684e-02  1.8314202820882280e-02  1.3143602498454567e-02  9.1520994016615256e-03  6.1850461217438975e-03  4.0586785365792450e-03  2.5887102155365506e-03  1.6094445937940320e-03  9.8414667228497853e-04  6.0874442537407324e-04  4.1137945139856259e-04  3.5011306273471980e-04  9.0888333680343519e-02  8.9429021813776516e-02  8.5193617363981358e-02  7.8582563061675326e-02  7.0190560591945159e-02  6.0717624494884707e-02  5.0873363621327647e-02  4.1292095849587714e-02  3.2472047179134371e-02  2.4745006583797233e-02  1.8275616627116277e-02  1.3083879425786848e-02  9.0815184831294603e-03  6.1126553690913710e-03  3.9911654826873116e-03  2.5300317846461851e-03  1.5610194898633769e-03  9.4535607968865797e-04  5.7752327428618700e-04  3.8478758882362862e-04  3.2494351288487276e-04  9.0924219999862554e-02  8.9467750448139774e-02  8.5238251042238797e-02  7.8631877478974002e-02  7.0239715806334008e-02  6.0760114378119671e-02  5.0903177438346089e-02  4.1305375292280129e-02  3.2467875535338753e-02  2.4725301288829060e-02  1.8244350663616734e-02  1.3045984367285600e-02  9.0418173278995154e-03  6.0750719636484376e-03  3.9583155794814980e-03  2.5031720068274133e-03  1.5402482352968045e-03  9.2993345419757341e-04  5.6619485901950517e-04  3.7603917666832255e-04  3.1715991248119251e-04  9.0950105380464677e-02  8.9493581820323895e-02  8.5263272160303341e-02  7.8654799951254559e-02  7.0258818307711121e-02  6.0773651273548474e-02  5.0909885013688774e-02  4.1304860075373276e-02  3.2460748838262957e-02  2.4713036377906054e-02  1.8228936791781735e-02  1.3029504287498210e-02  9.0260740156308424e-03  6.0613490575897296e-03  3.9472984329127075e-03  2.4950054581312320e-03  1.5346774861316351e-03  9.2646859405503342e-04  5.6425168034400009e-04  3.7502947366095137e-04  3.1652503793456761e-04  9.0959663351192710e-02  8.9502914903956662e-02  8.5271811674397277e-02  7.8661969220243724e-02  7.0264094530581217e-02  6.0776664242945110e-02  5.0910514029143712e-02  4.1303285149627590e-02  3.2457429803008829e-02  2.4708622386785593e-02  1.8224134533381817e-02  1.3024945372115031e-02  9.0222176309668993e-03  6.0584396449150117e-03  3.9453782405399866e-03  2.4939662772502039e-03  1.5343289371351008e-03  9.2660192885732806e-04  5.6468506718912513e-04  3.7562913399196514e-04  3.1720340027959328e-04  9.0961689758359082e-02  8.9504838829616698e-02  8.5273471145604574e-02  7.8663224862443301e-02  7.0264850433043230e-02  6.0776887553792007e-02  5.0910246075336951e-02  4.1302637501259773e-02  3.2456563399146002e-02  2.4707714283863792e-02  1.8223341744700920e-02  1.3024376298563616e-02  9.0219184742927391e-03  6.0583976394505065e-03  3.9455380924586616e-03  2.4942529466549629e-03  1.5346696043891780e-03  9.2694205141286327e-04  5.6499646884050744e-04  3.7591068136676582e-04  3.1747618959425064e-04  9.0961840101984021e-02  8.9504960023767913e-02  8.5273542582989456e-02  7.8663233769707477e-02  7.0264795203007685e-02  6.0776779346489514e-02  5.0910107701229584e-02  4.1302499189479841e-02  3.2456456138517810e-02  2.4707662505446509e-02  1.8223357594056567e-02  1.3024457305767732e-02  9.0220492317291939e-03  6.0585546889898815e-03  3.9456962278891393e-03  2.4943909309979558e-03  1.5347738623655367e-03  9.2700787407560582e-04  5.6502719710593580e-04  3.7591586305457084e-04  3.1746970376779314e-04  9.0961806712559240e-02  8.9504921861510892e-02  8.5273500646563111e-02  7.8663190411788125e-02  7.0264754076123440e-02  6.0776744969944313e-02  5.0910084638745995e-02  4.1302490968823262e-02  3.2456464198371025e-02  2.4707685533520849e-02  1.8223391551022157e-02  1.3024496210823492e-02  9.0220865028445823e-03  6.0585846143381581e-03  3.9457150977841018e-03  2.4943975013754882e-03  1.5347690816117727e-03  9.2699406836911072e-04  5.6500707374092024e-04  3.7589171200291550e-04  3.1744307237496354e-04  9.0961800422180702e-02  8.9504915550174854e-02  8.5273494916981177e-02  7.8663185922903028e-02  7.0264751428146588e-02  6.0776744563379573e-02  5.0910086536567464e-02  4.1302494804099130e-02  3.2456469172265016e-02  2.4707690532119041e-02  1.8223395372909446e-02  1.3024497852405396e-02  9.0220854158625397e-03  6.0585808486288643e-03  3.9457092768438737e-03  2.4943906351342390e-03  1.5347622749555373e-03  9.2698821272069545e-04  5.6500260412648082e-04  3.7588848240713741e-04  3.1744036656419642e-04  9.0961801187004698e-02  8.9504916468001045e-02  8.5273495984424089e-02  7.8663187116536415e-02  7.0264752692619226e-02  6.0776745804084563e-02  5.0910087622004989e-02  4.1302495581689899e-02  3.2456469497872259e-02  2.4707690308253854e-02  1.8223394585209711e-02  1.3024496591255657e-02  9.0220838724270631e-03  6.0585792824415247e-03  3.9457079627031252e-03  2.4943898055125747e-03  1.5347620759711895e-03  9.2698868551485691e-04  5.6500369196386003e-04  3.7589005261391689e-04  3.1744223127516653e-04  9.0961802633325151e-02  8.9504917749197402e-02  8.5273497025177072e-02  7.8663187868945786e-02  7.0264753132688262e-02  6.0776745931008916e-02  5.0910087459127867e-02  4.1302495177059827e-02  3.2456468922292675e-02  2.4707689649389391e-02  1.8223393937475251e-02  1.3024496042605674e-02  9.0220834904851579e-03  6.0585791032767072e-03  3.9457079855605521e-03  2.4943899957020812e-03  1.5347623760502346e-03  9.2698903245044709e-04  5.6500403592755306e-04  3.7589037213992649e-04  3.1744253998924898e-04  9.0961803843830846e-02  8.9504918682840759e-02  8.5273498101083381e-02  7.8663189332381228e-02  7.0264755032101514e-02  6.0776748144488725e-02  5.0910089754935731e-02  4.1302497288693049e-02  3.2456470618702708e-02  2.4707690784971096e-02  1.8223394473306533e-02  1.3024496038603514e-02  9.0220830755378383e-03  6.0585784349643833e-03  3.9457072117019048e-03  2.4943892270515187e-03  1.5347616746060754e-03  9.2698841493406444e-04  5.6500348840353670e-04  3.7588986986191234e-04  3.1744206607211113e-04  9.0961758377292132e-02  8.9504877169260588e-02  8.5273463736008123e-02  7.8663164100113411e-02  7.0264739743678042e-02  6.0776742554725982e-02  5.0910092733690668e-02  4.1302507040760994e-02  3.2456484951523437e-02  2.4707707409083741e-02  1.8223411297628653e-02  1.3024511408629759e-02  9.0220959094923312e-03  6.0585882397243811e-03  3.9457139945888193e-03  2.4943933460144342e-03  1.5347636778827846e-03  9.2698891097583091e-04  5.6500306427900531e-04  3.7588905150682736e-04  3.1744129596752264e-04  9.0961593134460658e-02  8.9504726697752390e-02  8.5273324000786466e-02  7.8663032089424753e-02  7.0264615102508560e-02  6.0776628001164915e-02  5.0909993218109080e-02  4.1302428024314740e-02  3.2456430484458593e-02  2.4707678714710354e-02  1.8223406306732932e-02  1.3024525285047994e-02  9.0221222555275198e-03  6.0586205057516877e-03  3.9457466626391510e-03  2.4944226380963930e-03  1.5347877456706740e-03  9.2700760716805117e-04  5.6501744523487145e-04  3.7590073620854690e-04  3.1745175701465068e-04  9.0962209059661847e-02  8.9505312698928918e-02  8.5273762087682767e-02  7.8663232809518507e-02  7.0264530819804286e-02  6.0776259390543236e-02  5.0909386354974495e-02  4.1301662096035342e-02  3.2455599354113358e-02  2.4706871549061621e-02  1.8222692347435152e-02  1.3023945891766914e-02  9.0216906605095435e-03  6.0583274558674424e-03  3.9455689901178852e-03  2.4943318635462465e-03  1.5347566770664105e-03  9.2701400744512870e-04  5.6504477565097661e-04  3.7593656831781620e-04  3.1748472542163377e-04  9.0969020878324078e-02  8.9511800293711835e-02  8.5279355744388122e-02  7.8667439676112116e-02  7.0266996097014880e-02  6.0776828230018135e-02  5.0908136612249778e-02  4.1298889133773775e-02  3.2451754010667959e-02  2.4702469851172776e-02  1.8218223303803766e-02  1.3019800538382963e-02  9.0181250624476270e-03  6.0554601677096729e-03  3.9434042028652057e-03  2.4927953191381707e-03  1.5337321133857683e-03  9.2637160215588033e-04  5.6465771033159767e-04  3.7568594815281918e-04  3.1725600757993204e-04  9.0994502621946569e-02  8.9536570882476546e-02  8.5302277752867250e-02  7.8687075780003016e-02  7.0281824894120701e-02  6.0785629141938372e-02  5.0910342054146601e-02  4.1294758836075446e-02  3.2442322562607949e-02  2.4689308144710261e-02  1.8203108060716070e-02  1.3004394839529022e-02  9.0037460996262881e-03  6.0429671935289401e-03  3.9331987111431302e-03  2.4848989749457957e-03  1.5278992676627892e-03  9.2219898386558682e-04  5.6166766627075630e-04  3.7337531515720161e-04  3.1511626855865231e-04  9.1040588517414048e-02  8.9584603630058768e-02  8.5353816962379134e-02  7.8739742576581243e-02  7.0330498993517537e-02  6.0824453287492031e-02  5.0934608812795455e-02  4.1302133143852324e-02  3.2433206545395533e-02  2.4666446516418191e-02  1.8170715360161266e-02  1.2967140405753691e-02  8.9658782359683786e-03  6.0077409770001059e-03  3.9026449292075471e-03  2.4598744910435521e-03  1.5083097255310495e-03  9.0728100621602294e-04  5.5024559263600645e-04  3.6405076254766741e-04  3.0639523555917492e-04  9.1018945452044822e-02  8.9592754301192956e-02  8.5409319019544530e-02  7.8836059799419045e-02  7.0448687971475271e-02  6.0941966150308266e-02  5.1031634930163022e-02  4.1365434414316130e-02  3.2457506962912962e-02  2.4653769884175718e-02  1.8128362749499371e-02  1.2905114342862456e-02  8.8944661206373614e-03  5.9357274268710203e-03  3.8363320570864636e-03  2.4028418833666608e-03  1.4616950432929899e-03  8.7031702506725969e-04  5.2082934940147574e-04  3.3921635702791189e-04  2.8269852137735596e-04  9.0357604258573518e-02  8.9323036630494679e-02  8.5412978742892817e-02  7.9017689552224352e-02  7.0726266029952370e-02  6.1246108504994831e-02  5.1308328681523033e-02  4.1578682896107957e-02  3.2589897292996411e-02  2.4704401610622342e-02  1.8108657136402976e-02  1.2833612826670256e-02  8.7918133866614415e-03  5.8207425237451864e-03  3.7235955231365602e-03  2.3017575205687116e-03  1.3766461131647161e-03  8.0136546645902154e-04  4.6436495448850992e-04  2.8796589376083232e-04  2.2444721886425177e-04  </DataArray> 
</PointData> 
</Piece>
</UnstructuredGrid>
</VTKFile>