<?xml version="1.0"?>
<VTKFile type="UnstructuredGrid"  version="0.1"  >
<UnstructuredGrid>
<Piece  NumberOfPoints="441" NumberOfCells="800">
<Points>
<DataArray  type="Float64"  NumberOfComponents="3"  format="ascii">-2 -2 0  -1.8 -2 0  -1.6 -2 0  -1.4 -2 0  -1.2 -2 0  -1 -2 0  -0.8 -2 0  -0.6000000000000001 -2 0  -0.3999999999999999 -2 0  -0.2 -2 0  0 -2 0  0.2000000000000002 -2 0  0.3999999999999999 -2 0  0.6000000000000001 -2 0  0.7999999999999998 -2 0  1 -2 0  1.2 -2 0  1.4 -2 0  1.6 -2 0  1.8 -2 0  2 -2 0  -2 -1.8 0  -1.8 -1.8 0  -1.6 -1.8 0  -1.4 -1.8 0  -1.2 -1.8 0  -1 -1.8 0  -0.8 -1.8 0  -0.6000000000000001 -1.8 0  -0.3999999999999999 -1.8 0  -0.2 -1.8 0  0 -1.8 0  0.2000000000000002 -1.8 0  0.3999999999999999 -1.8 0  0.6000000000000001 -1.8 0  0.7999999999999998 -1.8 0  1 -1.8 0  1.2 -1.8 0  1.4 -1.8 0  1.6 -1.8 0  1.8 -1.8 0  2 -1.8 0  -2 -1.6 0  -1.8 -1.6 0  -1.6 -1.6 0  -1.4 -1.6 0  -1.2 -1.6 0  -1 -1.6 0  -0.8 -1.6 0  -0.6000000000000001 -1.6 0  -0.3999999999999999 -1.6 0  -0.2 -1.6 0  0 -1.6 0  0.2000000000000002 -1.6 0  0.3999999999999999 -1.6 0  0.6000000000000001 -1.6 0  0.7999999999999998 -1.6 0  1 -1.6 0  1.2 -1.6 0  1.4 -1.6 0  1.6 -1.6 0  1.8 -1.6 0  2 -1.6 0  -2 -1.4 0  -1.8 -1.4 0  -1.6 -1.4 0  -1.4 -1.4 0  -1.2 -1.4 0  -1 -1.4 0  -0.8 -1.4 0  -0.6000000000000001 -1.4 0  -0.3999999999999999 -1.4 0  -0.2 -1.4 0  0 -1.4 0  0.2000000000000002 -1.4 0  0.3999999999999999 -1.4 0  0.6000000000000001 -1.4 0  0.7999999999999998 -1.4 0  1 -1.4 0  1.2 -1.4 0  1.4 -1.4 0  1.6 -1.4 0  1.8 -1.4 0  2 -1.4 0  -2 -1.2 0  -1.8 -1.2 0  -1.6 -1.2 0  -1.4 -1.2 0  -1.2 -1.2 0  -1 -1.2 0  -0.8 -1.2 0  -0.6000000000000001 -1.2 0  -0.3999999999999999 -1.2 0  -0.2 -1.2 0  0 -1.2 0  0.2000000000000002 -1.2 0  0.3999999999999999 -1.2 0  0.6000000000000001 -1.2 0  0.7999999999999998 -1.2 0  1 -1.2 0  1.2 -1.2 0  1.4 -1.2 0  1.6 -1.2 0  1.8 -1.2 0  2 -1.2 0  -2 -1 0  -1.8 -1 0  -1.6 -1 0  -1.4 -1 0  -1.2 -1 0  -1 -1 0  -0.8 -1 0  -0.6000000000000001 -1 0  -0.3999999999999999 -1 0  -0.2 -1 0  0 -1 0  0.2000000000000002 -1 0  0.3999999999999999 -1 0  0.6000000000000001 -1 0  0.7999999999999998 -1 0  1 -1 0  1.2 -1 0  1.4 -1 0  1.6 -1 0  1.8 -1 0  2 -1 0  -2 -0.8 0  -1.8 -0.8 0  -1.6 -0.8 0  -1.4 -0.8 0  -1.2 -0.8 0  -1 -0.8 0  -0.8 -0.8 0  -0.6000000000000001 -0.8 0  -0.3999999999999999 -0.8 0  -0.2 -0.8 0  0 -0.8 0  0.2000000000000002 -0.8 0  0.3999999999999999 -0.8 0  0.6000000000000001 -0.8 0  0.7999999999999998 -0.8 0  1 -0.8 0  1.2 -0.8 0  1.4 -0.8 0  1.6 -0.8 0  1.8 -0.8 0  2 -0.8 0  -2 -0.6000000000000001 0  -1.8 -0.6000000000000001 0  -1.6 -0.6000000000000001 0  -1.4 -0.6000000000000001 0  -1.2 -0.6000000000000001 0  -1 -0.6000000000000001 0  -0.8 -0.6000000000000001 0  -0.6000000000000001 -0.6000000000000001 0  -0.3999999999999999 -0.6000000000000001 0  -0.2 -0.6000000000000001 0  0 -0.6000000000000001 0  0.2000000000000002 -0.6000000000000001 0  0.3999999999999999 -0.6000000000000001 0  0.6000000000000001 -0.6000000000000001 0  0.7999999999999998 -0.6000000000000001 0  1 -0.6000000000000001 0  1.2 -0.6000000000000001 0  1.4 -0.6000000000000001 0  1.6 -0.6000000000000001 0  1.8 -0.6000000000000001 0  2 -0.6000000000000001 0  -2 -0.3999999999999999 0  -1.8 -0.3999999999999999 0  -1.6 -0.3999999999999999 0  -1.4 -0.3999999999999999 0  -1.2 -0.3999999999999999 0  -1 -0.3999999999999999 0  -0.8 -0.3999999999999999 0  -0.6000000000000001 -0.3999999999999999 0  -0.3999999999999999 -0.3999999999999999 0  -0.2 -0.3999999999999999 0  0 -0.3999999999999999 0  0.2000000000000002 -0.3999999999999999 0  0.3999999999999999 -0.3999999999999999 0  0.6000000000000001 -0.3999999999999999 0  0.7999999999999998 -0.3999999999999999 0  1 -0.3999999999999999 0  1.2 -0.3999999999999999 0  1.4 -0.3999999999999999 0  1.6 -0.3999999999999999 0  1.8 -0.3999999999999999 0  2 -0.3999999999999999 0  -2 -0.2 0  -1.8 -0.2 0  -1.6 -0.2 0  -1.4 -0.2 0  -1.2 -0.2 0  -1 -0.2 0  -0.8 -0.2 0  -0.6000000000000001 -0.2 0  -0.3999999999999999 -0.2 0  -0.2 -0.2 0  0 -0.2 0  0.2000000000000002 -0.2 0  0.3999999999999999 -0.2 0  0.6000000000000001 -0.2 0  0.7999999999999998 -0.2 0  1 -0.2 0  1.2 -0.2 0  1.4 -0.2 0  1.6 -0.2 0  1.8 -0.2 0  2 -0.2 0  -2 0 0  -1.8 0 0  -1.6 0 0  -1.4 0 0  -1.2 0 0  -1 0 0  -0.8 0 0  -0.6000000000000001 0 0  -0.3999999999999999 0 0  -0.2 0 0  0 0 0  0.2000000000000002 0 0  0.3999999999999999 0 0  0.6000000000000001 0 0  0.7999999999999998 0 0  1 0 0  1.2 0 0  1.4 0 0  1.6 0 0  1.8 0 0  2 0 0  -2 0.2000000000000002 0  -1.8 0.2000000000000002 0  -1.6 0.2000000000000002 0  -1.4 0.2000000000000002 0  -1.2 0.2000000000000002 0  -1 0.2000000000000002 0  -0.8 0.2000000000000002 0  -0.6000000000000001 0.2000000000000002 0  -0.3999999999999999 0.2000000000000002 0  -0.2 0.2000000000000002 0  0 0.2000000000000002 0  0.2000000000000002 0.2000000000000002 0  0.3999999999999999 0.2000000000000002 0  0.6000000000000001 0.2000000000000002 0  0.7999999999999998 0.2000000000000002 0  1 0.2000000000000002 0  1.2 0.2000000000000002 0  1.4 0.2000000000000002 0  1.6 0.2000000000000002 0  1.8 0.2000000000000002 0  2 0.2000000000000002 0  -2 0.3999999999999999 0  -1.8 0.3999999999999999 0  -1.6 0.3999999999999999 0  -1.4 0.3999999999999999 0  -1.2 0.3999999999999999 0  -1 0.3999999999999999 0  -0.8 0.3999999999999999 0  -0.6000000000000001 0.3999999999999999 0  -0.3999999999999999 0.3999999999999999 0  -0.2 0.3999999999999999 0  0 0.3999999999999999 0  0.2000000000000002 0.3999999999999999 0  0.3999999999999999 0.3999999999999999 0  0.6000000000000001 0.3999999999999999 0  0.7999999999999998 0.3999999999999999 0  1 0.3999999999999999 0  1.2 0.3999999999999999 0  1.4 0.3999999999999999 0  1.6 0.3999999999999999 0  1.8 0.3999999999999999 0  2 0.3999999999999999 0  -2 0.6000000000000001 0  -1.8 0.6000000000000001 0  -1.6 0.6000000000000001 0  -1.4 0.6000000000000001 0  -1.2 0.6000000000000001 0  -1 0.6000000000000001 0  -0.8 0.6000000000000001 0  -0.6000000000000001 0.6000000000000001 0  -0.3999999999999999 0.6000000000000001 0  -0.2 0.6000000000000001 0  0 0.6000000000000001 0  0.2000000000000002 0.6000000000000001 0  0.3999999999999999 0.6000000000000001 0  0.6000000000000001 0.6000000000000001 0  0.7999999999999998 0.6000000000000001 0  1 0.6000000000000001 0  1.2 0.6000000000000001 0  1.4 0.6000000000000001 0  1.6 0.6000000000000001 0  1.8 0.6000000000000001 0  2 0.6000000000000001 0  -2 0.7999999999999998 0  -1.8 0.7999999999999998 0  -1.6 0.7999999999999998 0  -1.4 0.7999999999999998 0  -1.2 0.7999999999999998 0  -1 0.7999999999999998 0  -0.8 0.7999999999999998 0  -0.6000000000000001 0.7999999999999998 0  -0.3999999999999999 0.7999999999999998 0  -0.2 0.7999999999999998 0  0 0.7999999999999998 0  0.2000000000000002 0.7999999999999998 0  0.3999999999999999 0.7999999999999998 0  0.6000000000000001 0.7999999999999998 0  0.7999999999999998 0.7999999999999998 0  1 0.7999999999999998 0  1.2 0.7999999999999998 0  1.4 0.7999999999999998 0  1.6 0.7999999999999998 0  1.8 0.7999999999999998 0  2 0.7999999999999998 0  -2 1 0  -1.8 1 0  -1.6 1 0  -1.4 1 0  -1.2 1 0  -1 1 0  -0.8 1 0  -0.6000000000000001 1 0  -0.3999999999999999 1 0  -0.2 1 0  0 1 0  0.2000000000000002 1 0  0.3999999999999999 1 0  0.6000000000000001 1 0  0.7999999999999998 1 0  1 1 0  1.2 1 0  1.4 1 0  1.6 1 0  1.8 1 0  2 1 0  -2 1.2 0  -1.8 1.2 0  -1.6 1.2 0  -1.4 1.2 0  -1.2 1.2 0  -1 1.2 0  -0.8 1.2 0  -0.6000000000000001 1.2 0  -0.3999999999999999 1.2 0  -0.2 1.2 0  0 1.2 0  0.2000000000000002 1.2 0  0.3999999999999999 1.2 0  0.6000000000000001 1.2 0  0.7999999999999998 1.2 0  1 1.2 0  1.2 1.2 0  1.4 1.2 0  1.6 1.2 0  1.8 1.2 0  2 1.2 0  -2 1.4 0  -1.8 1.4 0  -1.6 1.4 0  -1.4 1.4 0  -1.2 1.4 0  -1 1.4 0  -0.8 1.4 0  -0.6000000000000001 1.4 0  -0.3999999999999999 1.4 0  -0.2 1.4 0  0 1.4 0  0.2000000000000002 1.4 0  0.3999999999999999 1.4 0  0.6000000000000001 1.4 0  0.7999999999999998 1.4 0  1 1.4 0  1.2 1.4 0  1.4 1.4 0  1.6 1.4 0  1.8 1.4 0  2 1.4 0  -2 1.6 0  -1.8 1.6 0  -1.6 1.6 0  -1.4 1.6 0  -1.2 1.6 0  -1 1.6 0  -0.8 1.6 0  -0.6000000000000001 1.6 0  -0.3999999999999999 1.6 0  -0.2 1.6 0  0 1.6 0  0.2000000000000002 1.6 0  0.3999999999999999 1.6 0  0.6000000000000001 1.6 0  0.7999999999999998 1.6 0  1 1.6 0  1.2 1.6 0  1.4 1.6 0  1.6 1.6 0  1.8 1.6 0  2 1.6 0  -2 1.8 0  -1.8 1.8 0  -1.6 1.8 0  -1.4 1.8 0  -1.2 1.8 0  -1 1.8 0  -0.8 1.8 0  -0.6000000000000001 1.8 0  -0.3999999999999999 1.8 0  -0.2 1.8 0  0 1.8 0  0.2000000000000002 1.8 0  0.3999999999999999 1.8 0  0.6000000000000001 1.8 0  0.7999999999999998 1.8 0  1 1.8 0  1.2 1.8 0  1.4 1.8 0  1.6 1.8 0  1.8 1.8 0  2 1.8 0  -2 2 0  -1.8 2 0  -1.6 2 0  -1.4 2 0  -1.2 2 0  -1 2 0  -0.8 2 0  -0.6000000000000001 2 0  -0.3999999999999999 2 0  -0.2 2 0  0 2 0  0.2000000000000002 2 0  0.3999999999999999 2 0  0.6000000000000001 2 0  0.7999999999999998 2 0  1 2 0  1.2 2 0  1.4 2 0  1.6 2 0  1.8 2 0  2 2 0  </DataArray>
</Points>
<Cells>
[...]
<PointData  Scalars="f_8"> 
<DataArray  type="Float64"  Name="f_8"  format="ascii">7.3845200484342838e-03  0.0000000000000000e+00  0.0000000000000000e+00  0.0000000000000000e+00  0.0000000000000000e+00  0.0000000000000000e+00  0.0000000000000000e+00  0.0000000000000000e+00  0.0000000000000000e+00  0.0000000000000000e+00  0.0000000000000000e+00  0.0000000000000000e+00  0.0000000000000000e+00  0.0000000000000000e+00  0.0000000000000000e+00  0.0000000000000000e+00  0.0000000000000000e+00  0.0000000000000000e+00  0.0000000000000000e+00  0.0000000000000000e+00  0.0000000000000000e+00  7.8164128360876745e-02  7.7524656582492329e-02  7.6454348751575613e-02  7.4934209489305695e-02  7.2956874338541769e-02  7.0529493579040772e-02  6.7669684976494018e-02  6.4402600957146977e-02  6.0758667985814439e-02  5.6771755109382503e-02  5.2477646160363656e-02  4.7912758127828810e-02  4.3113085768604155e-02  3.8113371149805730e-02  3.2946503592677194e-02  2.7643154991118156e-02  2.2231650804017726e-02  1.6738070440114130e-02  1.1186564113019697e-02  5.5998682479287904e-03  0.0000000000000000e+00  1.4937098607810637e-01  1.4876299346582689e-01  1.4710556555815521e-01  1.4443354545167286e-01  1.4078655190947992e-01  1.3621136001724979e-01  1.3076235320435864e-01  1.2450081304901817e-01  1.1749353608241062e-01  1.0981110036306210e-01  1.0152600858904680e-01  9.2710875803504927e-02  8.3436789891784241e-02  7.3771942060631562e-02  6.3780597172450756e-02  5.3522447802670715e-02  4.3052370385932036e-02  3.2420576839812712e-02  2.1673130982044670e-02  1.0852776273679834e-02  0.0000000000000000e+00  2.1172545751061816e-01  2.1093658902199489e-01  2.0867230965340128e-01  2.0496426931185616e-01  1.9986131129335824e-01  1.9342755664970201e-01  1.8574029047215557e-01  1.7688756672181657e-01  1.6696557540819190e-01  1.5607587977704421e-01  1.4432265876672387e-01  1.3181009558686929e-01  1.1864004456646197e-01  1.0491008987852962e-01  9.0712084324894693e-02  7.6131226333410837e-02  6.1245700677867422e-02  4.6126875044782037e-02  3.0840012220864577e-02  1.5445428048826697e-02  0.0000000000000000e+00  2.6253169925109876e-01  2.6158870108981447e-01  2.5881953053069956e-01  2.5426025346993075e-01  2.4796875768379395e-01  2.4002264867079232e-01  2.3051657377350415e-01  2.1955910137321169e-01  2.0726930172569974e-01  1.9377319282551034e-01  1.7920022295836027e-01  1.6367995943102781e-01  1.4733914036239087e-01  1.3029922442529826e-01  1.1267454369835860e-01  9.4571129333462220e-02  7.6086240783747580e-02  5.7308589156965413e-02  3.8319206115264626e-02  1.9192873757476348e-02  0.0000000000000000e+00  3.0120019657047598e-01  3.0013990718059519e-01  2.9698550307713389e-01  2.9177735849412778e-01  2.8458085179250570e-01  2.7548407998841806e-01  2.6459485956900108e-01  2.5203717281239540e-01  2.3794724361601099e-01  2.2246944247749453e-01  2.0575222548444017e-01  1.8794430637682588e-01  1.6919124417670892e-01  1.4963260249960872e-01  1.2939980205273163e-01  1.0861474703122313e-01  8.7389261493342030e-02  6.5825325825240116e-02  4.4016058594831875e-02  2.2047347813031082e-02  0.0000000000000000e+00  3.2869197701537106e-01  3.2754686713120640e-01  3.2411714938478386e-01  3.1844639102268185e-01  3.1060541557457305e-01  3.0068985146142752e-01  2.8881689465181593e-01  2.7512145610773725e-01  2.5975189459495185e-01  2.4286555386096265e-01  2.2462432934293763e-01  2.0519048327593598e-01  1.8472290885572762e-01  1.6337401516910091e-01  1.4128736671897169e-01  1.1859616677914799e-01  9.5422625060273977e-02  7.1878199954075558e-02  4.8064656650177499e-02  2.4075837255359160e-02  0.0000000000000000e+00  3.4689545474120009e-01  3.4569155019905301e-01  3.4207707659761460e-01  3.3609776611737247e-01  3.2782809320854134e-01  3.1736870671123801e-01  3.0484303168396976e-01  2.9039321938373791e-01  2.7417565597642068e-01  2.5635626057972599e-01  2.3710581018566237e-01  2.1659552268882482e-01  1.9499311024422916e-01  1.7245948478691503e-01  1.4914625766506670e-01  1.2519412834166441e-01  1.0073220569821899e-01  7.5878252477428229e-02  5.0739791680061090e-02  2.5415965992153990e-02  0.0000000000000000e+00  3.5796576867901775e-01  3.5672295853759428e-01  3.5299314094477063e-01  3.4682341507273468e-01  3.3829051985508202e-01  3.2749819434091570e-01  3.1457368137362340e-01  2.9966355787841636e-01  2.8292910835378632e-01  2.6454147901784114e-01  2.4467685743047687e-01  2.2351191608395529e-01  2.0121973901869775e-01  1.7796641930700802e-01  1.5390847421347867e-01  1.2919117643459666e-01  1.0394784681865926e-01  7.8300099310827584e-02  5.2358975498566697e-02  2.6226856844058934e-02  0.0000000000000000e+00  3.6378260438495119e-01  3.6251603097787044e-01  3.5872240889186768e-01  3.5244960878342296e-01  3.4377560853242706e-01  3.3280581582175223e-01  3.1966952032343210e-01  3.0451566132225050e-01  2.8750813050478480e-01  2.6882085090968777e-01  2.4863288061530295e-01  2.2712378340773542e-01  2.0446948901873396e-01  1.8083883389251187e-01  1.5639093181964320e-01  1.3127347464857189e-01  1.0562200947123375e-01  7.9560183165724677e-02  5.3200890954837474e-02  2.6648215544497211e-02  0.0000000000000000e+00  3.6559380175267947e-01  3.6431592097862298e-01  3.6049862648962266e-01  3.5419008792898787e-01  3.4546872611808993e-01  3.3444052428068166e-01  3.2123546448655022e-01  3.0600327588020904e-01  2.8890871535495244e-01  2.7012662274586186e-01  2.4983700028006159e-01  2.2822035970758084e-01  2.0545356083325664e-01  1.8170633342703016e-01  1.5713863269983863e-01  1.3189892918981555e-01  1.0612347984175684e-01  7.9936571283004604e-02  5.3451671804811883e-02  2.6773378204195144e-02  0.0000000000000000e+00  3.6383051555380436e-01  3.6255371321116225e-01  3.5874977314024031e-01  3.5246671130582741e-01  3.4378265398301971e-01  3.3280316211521588e-01  3.1965768451623106e-01  3.0449532555454789e-01  2.8748014693344442e-01  2.6878624453315214e-01  2.4859284894621866e-01  2.2707969208335377e-01  2.0442286264188006e-01  1.8079134165306268e-01  1.5634436774116831e-01  1.3122973261880660e-01  1.0558305352969209e-01  7.9528013818798066e-02  5.3177508551103897e-02  2.6635581955352348e-02  0.0000000000000000e+00  3.5805129018588955e-01  3.5679094401991873e-01  3.5304340108628135e-01  3.4685597638679638e-01  3.3830563631164351e-01  3.2749636486590672e-01  3.1455567114544386e-01  2.9963042086767439e-01  2.8288220827624588e-01  2.6448250581029592e-01  2.4460783651349141e-01  2.2343520802881414e-01  2.0113802776145628e-01  1.7788268771409432e-01  1.5382596655833511e-01  1.2911334814718761e-01  1.0387830267190695e-01  7.8242521963687930e-02  5.2317046980737573e-02  2.6204176102660019e-02  0.0000000000000000e+00  3.4699515457332003e-01  3.4577275531045981e-01  3.4213946553686153e-01  3.3614114734302575e-01  3.2785243730160174e-01  3.1737419294860353e-01  3.0483010444331687e-01  2.9036264893814245e-01  2.7412859773768811e-01  2.5629430678283432e-01  2.3703102836453802e-01  2.1651047604217838e-01  1.9490085607452978e-01  1.7236354854436478e-01  1.4905058165837809e-01  1.2510299579798123e-01  1.0065014247205918e-01  7.5809910230278249e-02  5.0689817689679249e-02  2.5388865822666272e-02  0.0000000000000000e+00  3.2876658710179368e-01  3.2761209600225782e-01  3.2417246005219991e-01  3.1849105562039637e-01  3.1063858900131275e-01  3.0071067326581125e-01  2.8882461042066121e-01  2.7511554819040301e-01  2.5973221130101737e-01  2.4283242631501092e-01  2.2457866593731135e-01  2.0513383306552746e-01  1.8465748719568298e-01  1.6330268729074751e-01  1.4121358763646899e-01  1.1852387877076818e-01  9.5356116817093384e-02  7.1821934175789331e-02  4.8023075236279258e-02  2.4053155142416148e-02  0.0000000000000000e+00  3.0119680032119356e-01  3.0014907956891718e-01  2.9700627577048583e-01  2.9180797819062732e-01  2.8461892869672101e-01  2.7552678163001704e-01  2.6463913472013617e-01  2.5207998864313030e-01  2.3798581873326000e-01  2.2250145901686930e-01  2.0577600487944286e-01  1.8795893573378286e-01  1.6919664323753586e-01  1.4962952484830130e-01  1.2938976835133637e-01  1.0859991246130765e-01  8.7372224008718996e-02  6.5808886052178300e-02  4.4002945998403799e-02  2.2039930832284900e-02  0.0000000000000000e+00  2.6239523998951725e-01  2.6149941804387611e-01  2.5877548629362074e-01  2.5425792274512826e-01  2.4800330442783305e-01  2.4008825913628867e-01  2.3060682058308310e-01  2.1966731443494583e-01  2.0738892319552002e-01  1.9389809503549452e-01  1.7932497040832102e-01  1.6379999881030388e-01  1.4745090626553525e-01  1.3040015295748095e-01  1.1276299142547840e-01  9.4646200820185225e-02  7.6147534017096549e-02  5.7355874162280884e-02  3.8352057680874657e-02  1.9210283992514416e-02  0.0000000000000000e+00  2.1142136416338506e-01  2.1072207594592035e-01  2.0854318467542515e-01  2.0491399146768127e-01  1.9988150160590692e-01  1.9350853204584839e-01  1.8587158192070577e-01  1.7705840269499723e-01  1.6716531726864645e-01  1.5629439581094148e-01  1.4455062272402391e-01  1.3203919568902417e-01  1.1886309069272850e-01  1.0512101012929059e-01  9.0905807190685070e-02  7.6303450971975273e-02  6.1392564998625887e-02  4.6244539114742252e-02  3.0924182635167146e-02  1.5490856977854548e-02  0.0000000000000000e+00  1.4891775274871741e-01  1.4843956106800396e-01  1.4690246392419462e-01  1.4433869798931173e-01  1.4078654374860253e-01  1.3629219601407208e-01  1.3090995355533491e-01  1.2470138007007055e-01  1.1773385113609305e-01  1.1007876890181037e-01  1.0180964981898405e-01  9.3000243563552867e-02  8.3722808371992405e-02  7.4046641244829292e-02  6.4036936773736813e-02  5.3754024028731681e-02  4.3253006674757719e-02  3.2583807767638112e-02  2.1791598505587852e-02  1.0917570940288602e-02  0.0000000000000000e+00  7.7677339566778317e-02  7.7192935903101528e-02  7.6253216675961286e-02  7.4838755856979758e-02  7.2947483399222676e-02  7.0589951720245181e-02  6.7786051671548900e-02  6.4562561698157231e-02  6.0951186102821672e-02  5.6986899778198832e-02  5.2706511770621210e-02  4.8147414542203337e-02  4.3346515150769135e-02  3.8339357986404442e-02  3.3159451853420466e-02  2.7837810653535411e-02  2.2402709049684413e-02  1.6879643811192068e-02  1.1291479015175132e-02  5.6587393263562670e-03  0.0000000000000000e+00  7.1589372404022630e-03  0.0000000000000000e+00  0.0000000000000000e+00  0.0000000000000000e+00  0.0000000000000000e+00  0.0000000000000000e+00  0.0000000000000000e+00  0.0000000000000000e+00  0.0000000000000000e+00  0.0000000000000000e+00  0.0000000000000000e+00  0.0000000000000000e+00  0.0000000000000000e+00  0.0000000000000000e+00  0.0000000000000000e+00  0.0000000000000000e+00  0.0000000000000000e+00  0.0000000000000000e+00  0.0000000000000000e+00  0.0000000000000000e+00  0.0000000000000000e+00  </DataArray> 
</PointData> 
</Piece>
</UnstructuredGrid>
</VTKFile>