<?xml version="1.0"?>
<VTKFile type="UnstructuredGrid"  version="0.1"  >
<UnstructuredGrid>
<Piece  NumberOfPoints="441" NumberOfCells="800">
<Points>
<DataArray  type="Float64"  NumberOfComponents="3"  format="ascii">-2 -2 0  -1.8 -2 0  -1.6 -2 0  -1.4 -2 0  -1.2 -2 0  -1 -2 0  -0.8 -2 0  -0.6000000000000001 -2 0  -0.3999999999999999 -2 0  -0.2 -2 0  0 -2 0  0.2000000000000002 -2 0  0.3999999999999999 -2 0  0.6000000000000001 -2 0  0.7999999999999998 -2 0  1 -2 0  1.2 -2 0  1.4 -2 0  1.6 -2 0  1.8 -2 0  2 -2 0  -2 -1.8 0  -1.8 -1.8 0  -1.6 -1.8 0  -1.4 -1.8 0  -1.2 -1.8 0  -1 -1.8 0  -0.8 -1.8 0  -0.6000000000000001 -1.8 0  -0.3999999999999999 -1.8 0  -0.2 -1.8 0  0 -1.8 0  0.2000000000000002 -1.8 0  0.3999999999999999 -1.8 0  0.6000000000000001 -1.8 0  0.7999999999999998 -1.8 0  1 -1.8 0  1.2 -1.8 0  1.4 -1.8 0  1.6 -1.8 0  1.8 -1.8 0  2 -1.8 0  -2 -1.6 0  -1.8 -1.6 0  -1.6 -1.6 0  -1.4 -1.6 0  -1.2 -1.6 0  -1 -1.6 0  -0.8 -1.6 0  -0.6000000000000001 -1.6 0  -0.3999999999999999 -1.6 0  -0.2 -1.6 0  0 -1.6 0  0.2000000000000002 -1.6 0  0.3999999999999999 -1.6 0  0.6000000000000001 -1.6 0  0.7999999999999998 -1.6 0  1 -1.6 0  1.2 -1.6 0  1.4 -1.6 0  1.6 -1.6 0  1.8 -1.6 0  2 -1.6 0  -2 -1.4 0  -1.8 -1.4 0  -1.6 -1.4 0  -1.4 -1.4 0  -1.2 -1.4 0  -1 -1.4 0  -0.8 -1.4 0  -0.6000000000000001 -1.4 0  -0.3999999999999999 -1.4 0  -0.2 -1.4 0  0 -1.4 0  0.2000000000000002 -1.4 0  0.3999999999999999 -1.4 0  0.6000000000000001 -1.4 0  0.7999999999999998 -1.4 0  1 -1.4 0  1.2 -1.4 0  1.4 -1.4 0  1.6 -1.4 0  1.8 -1.4 0  2 -1.4 0  -2 -1.2 0  -1.8 -1.2 0  -1.6 -1.2 0  -1.4 -1.2 0  -1.2 -1.2 0  -1 -1.2 0  -0.8 -1.2 0  -0.6000000000000001 -1.2 0  -0.3999999999999999 -1.2 0  -0.2 -1.2 0  0 -1.2 0  0.2000000000000002 -1.2 0  0.3999999999999999 -1.2 0  0.6000000000000001 -1.2 0  0.7999999999999998 -1.2 0  1 -1.2 0  1.2 -1.2 0  1.4 -1.2 0  1.6 -1.2 0  1.8 -1.2 0  2 -1.2 0  -2 -1 0  -1.8 -1 0  -1.6 -1 0  -1.4 -1 0  -1.2 -1 0  -1 -1 0  -0.8 -1 0  -0.6000000000000001 -1 0  -0.3999999999999999 -1 0  -0.2 -1 0  0 -1 0  0.2000000000000002 -1 0  0.3999999999999999 -1 0  0.6000000000000001 -1 0  0.7999999999999998 -1 0  1 -1 0  1.2 -1 0  1.4 -1 0  1.6 -1 0  1.8 -1 0  2 -1 0  -2 -0.8 0  -1.8 -0.8 0  -1.6 -0.8 0  -1.4 -0.8 0  -1.2 -0.8 0  -1 -0.8 0  -0.8 -0.8 0  -0.6000000000000001 -0.8 0  -0.3999999999999999 -0.8 0  -0.2 -0.8 0  0 -0.8 0  0.2000000000000002 -0.8 0  0.3999999999999999 -0.8 0  0.6000000000000001 -0.8 0  0.7999999999999998 -0.8 0  1 -0.8 0  1.2 -0.8 0  1.4 -0.8 0  1.6 -0.8 0  1.8 -0.8 0  2 -0.8 0  -2 -0.6000000000000001 0  -1.8 -0.6000000000000001 0  -1.6 -0.6000000000000001 0  -1.4 -0.6000000000000001 0  -1.2 -0.6000000000000001 0  -1 -0.6000000000000001 0  -0.8 -0.6000000000000001 0  -0.6000000000000001 -0.6000000000000001 0  -0.3999999999999999 -0.6000000000000001 0  -0.2 -0.6000000000000001 0  0 -0.6000000000000001 0  0.2000000000000002 -0.6000000000000001 0  0.3999999999999999 -0.6000000000000001 0  0.6000000000000001 -0.6000000000000001 0  0.7999999999999998 -0.6000000000000001 0  1 -0.6000000000000001 0  1.2 -0.6000000000000001 0  1.4 -0.6000000000000001 0  1.6 -0.6000000000000001 0  1.8 -0.6000000000000001 0  2 -0.6000000000000001 0  -2 -0.3999999999999999 0  -1.8 -0.3999999999999999 0  -1.6 -0.3999999999999999 0  -1.4 -0.3999999999999999 0  -1.2 -0.3999999999999999 0  -1 -0.3999999999999999 0  -0.8 -0.3999999999999999 0  -0.6000000000000001 -0.3999999999999999 0  -0.3999999999999999 -0.3999999999999999 0  -0.2 -0.3999999999999999 0  0 -0.3999999999999999 0  0.2000000000000002 -0.3999999999999999 0  0.3999999999999999 -0.3999999999999999 0  0.6000000000000001 -0.3999999999999999 0  0.7999999999999998 -0.3999999999999999 0  1 -0.3999999999999999 0  1.2 -0.3999999999999999 0  1.4 -0.3999999999999999 0  1.6 -0.3999999999999999 0  1.8 -0.3999999999999999 0  2 -0.3999999999999999 0  -2 -0.2 0  -1.8 -0.2 0  -1.6 -0.2 0  -1.4 -0.2 0  -1.2 -0.2 0  -1 -0.2 0  -0.8 -0.2 0  -0.6000000000000001 -0.2 0  -0.3999999999999999 -0.2 0  -0.2 -0.2 0  0 -0.2 0  0.2000000000000002 -0.2 0  0.3999999999999999 -0.2 0  0.6000000000000001 -0.2 0  0.7999999999999998 -0.2 0  1 -0.2 0  1.2 -0.2 0  1.4 -0.2 0  1.6 -0.2 0  1.8 -0.2 0  2 -0.2 0  -2 0 0  -1.8 0 0  -1.6 0 0  -1.4 0 0  -1.2 0 0  -1 0 0  -0.8 0 0  -0.6000000000000001 0 0  -0.3999999999999999 0 0  -0.2 0 0  0 0 0  0.2000000000000002 0 0  0.3999999999999999 0 0  0.6000000000000001 0 0  0.7999999999999998 0 0  1 0 0  1.2 0 0  1.4 0 0  1.6 0 0  1.8 0 0  2 0 0  -2 0.2000000000000002 0  -1.8 0.2000000000000002 0  -1.6 0.2000000000000002 0  -1.4 0.2000000000000002 0  -1.2 0.2000000000000002 0  -1 0.2000000000000002 0  -0.8 0.2000000000000002 0  -0.6000000000000001 0.2000000000000002 0  -0.3999999999999999 0.2000000000000002 0  -0.2 0.2000000000000002 0  0 0.2000000000000002 0  0.2000000000000002 0.2000000000000002 0  0.3999999999999999 0.2000000000000002 0  0.6000000000000001 0.2000000000000002 0  0.7999999999999998 0.2000000000000002 0  1 0.2000000000000002 0  1.2 0.2000000000000002 0  1.4 0.2000000000000002 0  1.6 0.2000000000000002 0  1.8 0.2000000000000002 0  2 0.2000000000000002 0  -2 0.3999999999999999 0  -1.8 0.3999999999999999 0  -1.6 0.3999999999999999 0  -1.4 0.3999999999999999 0  -1.2 0.3999999999999999 0  -1 0.3999999999999999 0  -0.8 0.3999999999999999 0  -0.6000000000000001 0.3999999999999999 0  -0.3999999999999999 0.3999999999999999 0  -0.2 0.3999999999999999 0  0 0.3999999999999999 0  0.2000000000000002 0.3999999999999999 0  0.3999999999999999 0.3999999999999999 0  0.6000000000000001 0.3999999999999999 0  0.7999999999999998 0.3999999999999999 0  1 0.3999999999999999 0  1.2 0.3999999999999999 0  1.4 0.3999999999999999 0  1.6 0.3999999999999999 0  1.8 0.3999999999999999 0  2 0.3999999999999999 0  -2 0.6000000000000001 0  -1.8 0.6000000000000001 0  -1.6 0.6000000000000001 0  -1.4 0.6000000000000001 0  -1.2 0.6000000000000001 0  -1 0.6000000000000001 0  -0.8 0.6000000000000001 0  -0.6000000000000001 0.6000000000000001 0  -0.3999999999999999 0.6000000000000001 0  -0.2 0.6000000000000001 0  0 0.6000000000000001 0  0.2000000000000002 0.6000000000000001 0  0.3999999999999999 0.6000000000000001 0  0.6000000000000001 0.6000000000000001 0  0.7999999999999998 0.6000000000000001 0  1 0.6000000000000001 0  1.2 0.6000000000000001 0  1.4 0.6000000000000001 0  1.6 0.6000000000000001 0  1.8 0.6000000000000001 0  2 0.6000000000000001 0  -2 0.7999999999999998 0  -1.8 0.7999999999999998 0  -1.6 0.7999999999999998 0  -1.4 0.7999999999999998 0  -1.2 0.7999999999999998 0  -1 0.7999999999999998 0  -0.8 0.7999999999999998 0  -0.6000000000000001 0.7999999999999998 0  -0.3999999999999999 0.7999999999999998 0  -0.2 0.7999999999999998 0  0 0.7999999999999998 0  0.2000000000000002 0.7999999999999998 0  0.3999999999999999 0.7999999999999998 0  0.6000000000000001 0.7999999999999998 0  0.7999999999999998 0.7999999999999998 0  1 0.7999999999999998 0  1.2 0.7999999999999998 0  1.4 0.7999999999999998 0  1.6 0.7999999999999998 0  1.8 0.7999999999999998 0  2 0.7999999999999998 0  -2 1 0  -1.8 1 0  -1.6 1 0  -1.4 1 0  -1.2 1 0  -1 1 0  -0.8 1 0  -0.6000000000000001 1 0  -0.3999999999999999 1 0  -0.2 1 0  0 1 0  0.2000000000000002 1 0  0.3999999999999999 1 0  0.6000000000000001 1 0  0.7999999999999998 1 0  1 1 0  1.2 1 0  1.4 1 0  1.6 1 0  1.8 1 0  2 1 0  -2 1.2 0  -1.8 1.2 0  -1.6 1.2 0  -1.4 1.2 0  -1.2 1.2 0  -1 1.2 0  -0.8 1.2 0  -0.6000000000000001 1.2 0  -0.3999999999999999 1.2 0  -0.2 1.2 0  0 1.2 0  0.2000000000000002 1.2 0  0.3999999999999999 1.2 0  0.6000000000000001 1.2 0  0.7999999999999998 1.2 0  1 1.2 0  1.2 1.2 0  1.4 1.2 0  1.6 1.2 0  1.8 1.2 0  2 1.2 0  -2 1.4 0  -1.8 1.4 0  -1.6 1.4 0  -1.4 1.4 0  -1.2 1.4 0  -1 1.4 0  -0.8 1.4 0  -0.6000000000000001 1.4 0  -0.3999999999999999 1.4 0  -0.2 1.4 0  0 1.4 0  0.2000000000000002 1.4 0  0.3999999999999999 1.4 0  0.6000000000000001 1.4 0  0.7999999999999998 1.4 0  1 1.4 0  1.2 1.4 0  1.4 1.4 0  1.6 1.4 0  1.8 1.4 0  2 1.4 0  -2 1.6 0  -1.8 1.6 0  -1.6 1.6 0  -1.4 1.6 0  -1.2 1.6 0  -1 1.6 0  -0.8 1.6 0  -0.6000000000000001 1.6 0  -0.3999999999999999 1.6 0  -0.2 1.6 0  0 1.6 0  0.2000000000000002 1.6 0  0.3999999999999999 1.6 0  0.6000000000000001 1.6 0  0.7999999999999998 1.6 0  1 1.6 0  1.2 1.6 0  1.4 1.6 0  1.6 1.6 0  1.8 1.6 0  2 1.6 0  -2 1.8 0  -1.8 1.8 0  -1.6 1.8 0  -1.4 1.8 0  -1.2 1.8 0  -1 1.8 0  -0.8 1.8 0  -0.6000000000000001 1.8 0  -0.3999999999999999 1.8 0  -0.2 1.8 0  0 1.8 0  0.2000000000000002 1.8 0  0.3999999999999999 1.8 0  0.6000000000000001 1.8 0  0.7999999999999998 1.8 0  1 1.8 0  1.2 1.8 0  1.4 1.8 0  1.6 1.8 0  1.8 1.8 0  2 1.8 0  -2 2 0  -1.8 2 0  -1.6 2 0  -1.4 2 0  -1.2 2 0  -1 2 0  -0.8 2 0  -0.6000000000000001 2 0  -0.3999999999999999 2 0  -0.2 2 0  0 2 0  0.2000000000000002 2 0  0.3999999999999999 2 0  0.6000000000000001 2 0  0.7999999999999998 2 0  1 2 0  1.2 2 0  1.4 2 0  1.6 2 0  1.8 2 0  2 2 0  </DataArray>
</Points>
<Cells>
[...]
<PointData  Scalars="f_8"> 
<DataArray  type="Float64"  Name="f_8"  format="ascii">9.4730302512881420e-02  9.2645908336136368e-02  8.7619488851095731e-02  8.0126060295152818e-02  7.0857800409421162e-02  6.0608343077400810e-02  5.0156745772857447e-02  4.0171905423034941e-02  3.1151111521831192e-02  2.3396987573545577e-02  1.7028360727211009e-02  1.2014819429183086e-02  8.2226986010554542e-03  5.4615075774664991e-03  3.5231295776960731e-03  2.2100388132276160e-03  1.3521768689602456e-03  8.1441083915900206e-04  4.9757841405310315e-04  3.3626258865856443e-04  2.9601128155082150e-04  9.4000294367782067e-02  9.2357482086837486e-02  8.7635383142011039e-02  8.0334027844391864e-02  7.1162176222264756e-02  6.0930554165516543e-02  5.0438593763658064e-02  4.0377707547744182e-02  3.1266892856862905e-02  2.3426656642803016e-02  1.6987927557657607e-02  1.1926140650264778e-02  8.1080663801838693e-03  5.3398804409738676e-03  3.4082018736622437e-03  2.1098631455239141e-03  1.2697807304427942e-03  7.4877120747288974e-04  4.4435565866398594e-04  2.8774159826475202e-04  2.3964733056956649e-04  9.3959147122144246e-02  9.2347438655719288e-02  8.7680277621340882e-02  8.0427931976879377e-02  7.1283501667018315e-02  6.1052920455362619e-02  5.0538759102656247e-02  4.0440354327978212e-02  3.1286289922556769e-02  2.3405719453830007e-02  1.6935609342935646e-02  1.1854222997377912e-02  8.0282588372401539e-03  5.2617895508584936e-03  3.3383385966482939e-03  2.0515468465644371e-03  1.2236292024047611e-03  7.1343903687686328e-04  4.1725945078509752e-04  2.6564652209927128e-04  2.1916363363163647e-04  9.3999507260168882e-02  9.2390766957019754e-02  8.7729513735322798e-02  8.0481256460825476e-02  7.1335202984263352e-02  6.1095726631783649e-02  5.0566342487534985e-02  4.0449143874307592e-02  3.1276185406621353e-02  2.3379735225081074e-02  1.6898785784109204e-02  1.1812272609165664e-02  7.9863674336093093e-03  5.2238332563848029e-03  3.3065869924390088e-03  2.0267704402005975e-03  1.2054498660063724e-03  7.0075444639492476e-04  4.0861358057857236e-04  2.5947836913243610e-04  2.1392143932661385e-04  9.4026134352051538e-02  9.2417287842726584e-02  8.7754999304756692e-02  8.0504222535265096e-02  7.1353757101242893e-02  6.1108053120707932e-02  5.0571268521477634e-02  4.0446533449833455e-02  3.1267016219773430e-02  2.3365856434589334e-02  1.6882470016896651e-02  1.1795725848189571e-02  7.9713419135217321e-03  5.2114246871899248e-03  3.2972228611976746e-03  2.0203397039953433e-03  1.2014996624805530e-03  6.9868438377779598e-04  4.0782093808928343e-04  2.5943458801637996e-04  2.1418210554572013e-04  9.4035052413749681e-02  9.2425963724489898e-02  8.7762845657270008e-02  8.0510652713320585e-02  7.1358258467260863e-02  6.1110296225105172e-02  5.0571205932533045e-02  4.0444439107038592e-02  3.1263440403506988e-02  2.3361507182796153e-02  1.6878060455933524e-02  1.1791836305257085e-02  7.9683346804847385e-03  5.2094260401758241e-03  3.2961630990874795e-03  2.0200267533365159e-03  1.2016985494146591e-03  6.9918127635910411e-04  4.0846117578507312e-04  2.6013391552750213e-04  2.1491619650455075e-04  9.4036647166633194e-02  9.2427456904863689e-02  8.7764092869457216e-02  8.0511533967763657e-02  7.1358699217172070e-02  6.1110285992142604e-02  5.0570806534299642e-02  4.0443775935821775e-02  3.1262676205491072e-02  2.3360805171392642e-02  1.6877548324567924e-02  1.1791582357834080e-02  7.9683422806013302e-03  5.2096455907190836e-03  3.2965150748806211e-03  2.0204270514498461e-03  1.2020787906284838e-03  6.9950028709492773e-04  4.0870772008923169e-04  2.6032327095262912e-04  2.1508376363697581e-04  9.4036693485731404e-02  9.2427477189219454e-02  8.7764074266172665e-02  8.0511470996271470e-02  7.1358596309636632e-02  6.1110158206600311e-02  5.0570677535067395e-02  4.0443673065905607e-02  3.1262623684033548e-02  2.3360817503898391e-02  1.6877626246408119e-02  1.1791712799267030e-02  7.9685023051103664e-03  5.2098087665134966e-03  3.2966579855943433e-03  2.0205339051666184e-03  1.2021431054995927e-03  6.9952386863373207e-04  4.0869806289663802e-04  2.6029082720814198e-04  2.1504023328118007e-04  9.4036657929335049e-02  9.2427438291565966e-02  8.7764033938338606e-02  8.0511432183831680e-02  7.1358562753611618e-02  6.1110133880185179e-02  5.0570665789521102e-02  4.0443675660014299e-02  3.1262640006701800e-02  2.3360844332175740e-02  1.6877658247095681e-02  1.1791743709887810e-02  7.9685264419375214e-03  5.2098223519127197e-03  3.2966598480933512e-03  2.0205253529872068e-03  1.2021270853535477e-03  6.9950375680106363e-04  4.0867651316820478e-04  2.6026902601543296e-04  2.1501775458061139e-04  9.4036655159264043e-02  9.2427435760686003e-02  8.7764032092220862e-02  8.0511431457380045e-02  7.1358563463486430e-02  6.1110136109079082e-02  5.0570669293457465e-02  4.0443679837874696e-02  3.1262643966509636e-02  2.3360847064327582e-02  1.6877658873841343e-02  1.1791741739515259e-02  7.9685219384606331e-03  5.2098159516802420e-03  3.2966526087039980e-03  2.0205184825831122e-03  1.2021216410760304e-03  6.9950040124770350e-04  4.0867538103500780e-04  2.6026970306514417e-04  2.1501933611338259e-04  9.4036656038292837e-02  9.2427436783943301e-02  8.7764033226674365e-02  8.0511432646097225e-02  7.1358564621907719e-02  6.1110137127101033e-02  5.0570670046787128e-02  4.0443680210050084e-02  3.1262643879092097e-02  2.3360846507850454e-02  1.6877657928279784e-02  1.1791740573154755e-02  7.9685207798304049e-03  5.2098150395095792e-03  3.2966521352823129e-03  2.0205185508860067e-03  1.2021222520438445e-03  6.9950147556348166e-04  4.0867680475812105e-04  2.6027137528028272e-04  2.1502119448189820e-04  9.4036656923076542e-02  9.2427437538866591e-02  8.7764033768962108e-02  8.0511432931411206e-02  7.1358564641829436e-02  6.1110136905574611e-02  5.0570669635320399e-02  4.0443679681028584e-02  3.1262643316766252e-02  2.3360845997185319e-02  1.6877657542663484e-02  1.1791740362746325e-02  7.9685207628807219e-03  5.2098151990271806e-03  3.2966524226714492e-03  2.0205188966400710e-03  1.2021225816503183e-03  6.9950172721383640e-04  4.0867694491728083e-04  2.6027140877659679e-04  2.1502116701629028e-04  9.4036660738039290e-02  9.2427440799993155e-02  8.7764036640884738e-02  8.0511435499934586e-02  7.1358566893941433e-02  6.1110138751964124e-02  5.0570670958807705e-02  4.0443680390429990e-02  3.1262643387906443e-02  2.3360845489651578e-02  1.6877656590095397e-02  1.1791739143040159e-02  7.9685194599678003e-03  5.2098139684516650e-03  3.2966513695561806e-03  2.0205180689240885e-03  1.2021219763373558e-03  6.9950130461372817e-04  4.0867664578538281e-04  2.6027117079058660e-04  2.1502093860489044e-04  9.4036629956746984e-02  9.2427412852584601e-02  8.7764014748805672e-02  8.0511421561530488e-02  7.1358561470623638e-02  6.1110141219028309e-02  5.0570679778251429e-02  4.0443693464124492e-02  3.1262658444788455e-02  2.3360860450697733e-02  1.6877669850743127e-02  1.1791749725762005e-02  7.9685270209299986e-03  5.2098186805291553e-03  3.2966537335989169e-03  2.0205187151461179e-03  1.2021215070694281e-03  6.9950020579215223e-04  4.0867526769137617e-04  2.6026975694224081e-04  2.1501966974744985e-04  9.4036433525249624e-02  9.2427234123082389e-02  8.7763856335475982e-02  8.0511285149478806e-02  7.1358448906103114e-02  6.1110054721867320e-02  5.0570621304847144e-02  4.0443663616795557e-02  3.1262655523809080e-02  2.3360880151954498e-02  1.6877705782896636e-02  1.1791794546611821e-02  7.9685737625991310e-03  5.2098618281451702e-03  3.2966897954762307e-03  2.0205462548347820e-03  1.2021407849826969e-03  6.9951264287903886e-04  4.0868290300091141e-04  2.6027477437262007e-04  2.1502397692739638e-04  9.4036668966608394e-02  9.2427459619563918e-02  8.7763977725921399e-02  8.0511234268029253e-02  7.1358195514395581e-02  6.1109610882130717e-02  5.0570036090844470e-02  4.0443009204389736e-02  3.1262008916599832e-02  2.3360306193103850e-02  1.6877246081278260e-02  1.1791464278547027e-02  7.9683654312667600e-03  5.2097531762473007e-03  3.2966526333688918e-03  2.0205537079710655e-03  1.2021717205909041e-03  6.9955317636096826e-04  4.0872556612479876e-04  2.6031613368233638e-04  2.1506141880942402e-04  9.4042527991393440e-02  9.2433005938503496e-02  8.7768642565632188e-02  8.0514542060683356e-02  7.1359830437268734e-02  6.1109476568366329e-02  5.0568276870837620e-02  4.0439977002528757e-02  3.1258183516363829e-02  2.3356194370713856e-02  1.6873289820372617e-02  1.1787980557223030e-02  7.9655258991546320e-03  5.2075984847012443e-03  3.2951280006432121e-03  2.0195506713695660e-03  1.2015642863959231e-03  6.9922191516866338e-04  4.0856820830249119e-04  2.6024667946323492e-04  2.1500162303956225e-04  9.4068088692129473e-02  9.2457731603332025e-02  8.7791200529750826e-02  8.0533337060851973e-02  7.1373274952516871e-02  6.1116420519468417e-02  5.0568362949330870e-02  4.0433768032018952e-02  3.1247029791869843e-02  2.3341912609549265e-02  1.6857776939111696e-02  1.1772880235510295e-02  7.9520217665707115e-03  5.1963517491461619e-03  3.2863322409911644e-03  2.0130536941702490e-03  1.1970060296832333e-03  6.9615077137359605e-04  4.0651665156051485e-04  2.5876400515381328e-04  2.1365399176285314e-04  9.4119168717027496e-02  9.2510642010261657e-02  8.7847119497722503e-02  8.0589168512499781e-02  7.1423137681851628e-02  6.1153998893196171e-02  5.0589014364154125e-02  4.0435758424060039e-02  3.1231722911158152e-02  2.3313100768155851e-02  1.6820543964104120e-02  1.1732415986174307e-02  7.9127025020659346e-03  5.1612342018134139e-03  3.2570521956952776e-03  1.9900171324395413e-03  1.1797244847360706e-03  6.8358920723692225e-04  3.9736788492279181e-04  2.5161683726604564e-04  2.0707095757978747e-04  9.4103049135565109e-02  9.2527240438529945e-02  8.7914847159558246e-02  8.0699315478408709e-02  7.1553359479901157e-02  6.1278662711998735e-02  5.0686581166839988e-02  4.0493007211143392e-02  3.1244915614395474e-02  2.3286687784479315e-02  1.6764386085371924e-02  1.1658584118472728e-02  7.8327164529322611e-03  5.0842328854297314e-03  3.1889997792577986e-03  1.9337589199342293e-03  1.1355627985791725e-03  6.5004167448148419e-04  3.7185219904546646e-04  2.3092855540160845e-04  1.8765838219893819e-04  9.3385866007342652e-02  9.2244278190091816e-02  8.7935468550366575e-02  8.0915163362958398e-02  7.1869798870783014e-02  6.1615756245952724e-02  5.0983372892151421e-02  4.0710874503769638e-02  3.1367783529543773e-02  2.3317751503888560e-02  1.6720325895583775e-02  1.1562884794697652e-02  7.7096469198345285e-03  4.9545224883332370e-03  3.0675632725125947e-03  1.8292304543484957e-03  1.0510402787406983e-03  5.8432898699142886e-04  3.2053717800979931e-04  1.8672692590324986e-04  1.3946386467764984e-04  </DataArray> 
</PointData> 
</Piece>
</UnstructuredGrid>
</VTKFile>