<?xml version="1.0"?>
<VTKFile type="UnstructuredGrid"  version="0.1"  >
<UnstructuredGrid>
<Piece  NumberOfPoints="441" NumberOfCells="800">
<Points>
<DataArray  type="Float64"  NumberOfComponents="3"  format="ascii">-2 -2 0  -1.8 -2 0  -1.6 -2 0  -1.4 -2 0  -1.2 -2 0  -1 -2 0  -0.8 -2 0  -0.6000000000000001 -2 0  -0.3999999999999999 -2 0  -0.2 -2 0  0 -2 0  0.2000000000000002 -2 0  0.3999999999999999 -2 0  0.6000000000000001 -2 0  0.7999999999999998 -2 0  1 -2 0  1.2 -2 0  1.4 -2 0  1.6 -2 0  1.8 -2 0  2 -2 0  -2 -1.8 0  -1.8 -1.8 0  -1.6 -1.8 0  -1.4 -1.8 0  -1.2 -1.8 0  -1 -1.8 0  -0.8 -1.8 0  -0.6000000000000001 -1.8 0  -0.3999999999999999 -1.8 0  -0.2 -1.8 0  0 -1.8 0  0.2000000000000002 -1.8 0  0.3999999999999999 -1.8 0  0.6000000000000001 -1.8 0  0.7999999999999998 -1.8 0  1 -1.8 0  1.2 -1.8 0  1.4 -1.8 0  1.6 -1.8 0  1.8 -1.8 0  2 -1.8 0  -2 -1.6 0  -1.8 -1.6 0  -1.6 -1.6 0  -1.4 -1.6 0  -1.2 -1.6 0  -1 -1.6 0  -0.8 -1.6 0  -0.6000000000000001 -1.6 0  -0.3999999999999999 -1.6 0  -0.2 -1.6 0  0 -1.6 0  0.2000000000000002 -1.6 0  0.3999999999999999 -1.6 0  0.6000000000000001 -1.6 0  0.7999999999999998 -1.6 0  1 -1.6 0  1.2 -1.6 0  1.4 -1.6 0  1.6 -1.6 0  1.8 -1.6 0  2 -1.6 0  -2 -1.4 0  -1.8 -1.4 0  -1.6 -1.4 0  -1.4 -1.4 0  -1.2 -1.4 0  -1 -1.4 0  -0.8 -1.4 0  -0.6000000000000001 -1.4 0  -0.3999999999999999 -1.4 0  -0.2 -1.4 0  0 -1.4 0  0.2000000000000002 -1.4 0  0.3999999999999999 -1.4 0  0.6000000000000001 -1.4 0  0.7999999999999998 -1.4 0  1 -1.4 0  1.2 -1.4 0  1.4 -1.4 0  1.6 -1.4 0  1.8 -1.4 0  2 -1.4 0  -2 -1.2 0  -1.8 -1.2 0  -1.6 -1.2 0  -1.4 -1.2 0  -1.2 -1.2 0  -1 -1.2 0  -0.8 -1.2 0  -0.6000000000000001 -1.2 0  -0.3999999999999999 -1.2 0  -0.2 -1.2 0  0 -1.2 0  0.2000000000000002 -1.2 0  0.3999999999999999 -1.2 0  0.6000000000000001 -1.2 0  0.7999999999999998 -1.2 0  1 -1.2 0  1.2 -1.2 0  1.4 -1.2 0  1.6 -1.2 0  1.8 -1.2 0  2 -1.2 0  -2 -1 0  -1.8 -1 0  -1.6 -1 0  -1.4 -1 0  -1.2 -1 0  -1 -1 0  -0.8 -1 0  -0.6000000000000001 -1 0  -0.3999999999999999 -1 0  -0.2 -1 0  0 -1 0  0.2000000000000002 -1 0  0.3999999999999999 -1 0  0.6000000000000001 -1 0  0.7999999999999998 -1 0  1 -1 0  1.2 -1 0  1.4 -1 0  1.6 -1 0  1.8 -1 0  2 -1 0  -2 -0.8 0  -1.8 -0.8 0  -1.6 -0.8 0  -1.4 -0.8 0  -1.2 -0.8 0  -1 -0.8 0  -0.8 -0.8 0  -0.6000000000000001 -0.8 0  -0.3999999999999999 -0.8 0  -0.2 -0.8 0  0 -0.8 0  0.2000000000000002 -0.8 0  0.3999999999999999 -0.8 0  0.6000000000000001 -0.8 0  0.7999999999999998 -0.8 0  1 -0.8 0  1.2 -0.8 0  1.4 -0.8 0  1.6 -0.8 0  1.8 -0.8 0  2 -0.8 0  -2 -0.6000000000000001 0  -1.8 -0.6000000000000001 0  -1.6 -0.6000000000000001 0  -1.4 -0.6000000000000001 0  -1.2 -0.6000000000000001 0  -1 -0.6000000000000001 0  -0.8 -0.6000000000000001 0  -0.6000000000000001 -0.6000000000000001 0  -0.3999999999999999 -0.6000000000000001 0  -0.2 -0.6000000000000001 0  0 -0.6000000000000001 0  0.2000000000000002 -0.6000000000000001 0  0.3999999999999999 -0.6000000000000001 0  0.6000000000000001 -0.6000000000000001 0  0.7999999999999998 -0.6000000000000001 0  1 -0.6000000000000001 0  1.2 -0.6000000000000001 0  1.4 -0.6000000000000001 0  1.6 -0.6000000000000001 0  1.8 -0.6000000000000001 0  2 -0.6000000000000001 0  -2 -0.3999999999999999 0  -1.8 -0.3999999999999999 0  -1.6 -0.3999999999999999 0  -1.4 -0.3999999999999999 0  -1.2 -0.3999999999999999 0  -1 -0.3999999999999999 0  -0.8 -0.3999999999999999 0  -0.6000000000000001 -0.3999999999999999 0  -0.3999999999999999 -0.3999999999999999 0  -0.2 -0.3999999999999999 0  0 -0.3999999999999999 0  0.2000000000000002 -0.3999999999999999 0  0.3999999999999999 -0.3999999999999999 0  0.6000000000000001 -0.3999999999999999 0  0.7999999999999998 -0.3999999999999999 0  1 -0.3999999999999999 0  1.2 -0.3999999999999999 0  1.4 -0.3999999999999999 0  1.6 -0.3999999999999999 0  1.8 -0.3999999999999999 0  2 -0.3999999999999999 0  -2 -0.2 0  -1.8 -0.2 0  -1.6 -0.2 0  -1.4 -0.2 0  -1.2 -0.2 0  -1 -0.2 0  -0.8 -0.2 0  -0.6000000000000001 -0.2 0  -0.3999999999999999 -0.2 0  -0.2 -0.2 0  0 -0.2 0  0.2000000000000002 -0.2 0  0.3999999999999999 -0.2 0  0.6000000000000001 -0.2 0  0.7999999999999998 -0.2 0  1 -0.2 0  1.2 -0.2 0  1.4 -0.2 0  1.6 -0.2 0  1.8 -0.2 0  2 -0.2 0  -2 0 0  -1.8 0 0  -1.6 0 0  -1.4 0 0  -1.2 0 0  -1 0 0  -0.8 0 0  -0.6000000000000001 0 0  -0.3999999999999999 0 0  -0.2 0 0  0 0 0  0.2000000000000002 0 0  0.3999999999999999 0 0  0.6000000000000001 0 0  0.7999999999999998 0 0  1 0 0  1.2 0 0  1.4 0 0  1.6 0 0  1.8 0 0  2 0 0  -2 0.2000000000000002 0  -1.8 0.2000000000000002 0  -1.6 0.2000000000000002 0  -1.4 0.2000000000000002 0  -1.2 0.2000000000000002 0  -1 0.2000000000000002 0  -0.8 0.2000000000000002 0  -0.6000000000000001 0.2000000000000002 0  -0.3999999999999999 0.2000000000000002 0  -0.2 0.2000000000000002 0  0 0.2000000000000002 0  0.2000000000000002 0.2000000000000002 0  0.3999999999999999 0.2000000000000002 0  0.6000000000000001 0.2000000000000002 0  0.7999999999999998 0.2000000000000002 0  1 0.2000000000000002 0  1.2 0.2000000000000002 0  1.4 0.2000000000000002 0  1.6 0.2000000000000002 0  1.8 0.2000000000000002 0  2 0.2000000000000002 0  -2 0.3999999999999999 0  -1.8 0.3999999999999999 0  -1.6 0.3999999999999999 0  -1.4 0.3999999999999999 0  -1.2 0.3999999999999999 0  -1 0.3999999999999999 0  -0.8 0.3999999999999999 0  -0.6000000000000001 0.3999999999999999 0  -0.3999999999999999 0.3999999999999999 0  -0.2 0.3999999999999999 0  0 0.3999999999999999 0  0.2000000000000002 0.3999999999999999 0  0.3999999999999999 0.3999999999999999 0  0.6000000000000001 0.3999999999999999 0  0.7999999999999998 0.3999999999999999 0  1 0.3999999999999999 0  1.2 0.3999999999999999 0  1.4 0.3999999999999999 0  1.6 0.3999999999999999 0  1.8 0.3999999999999999 0  2 0.3999999999999999 0  -2 0.6000000000000001 0  -1.8 0.6000000000000001 0  -1.6 0.6000000000000001 0  -1.4 0.6000000000000001 0  -1.2 0.6000000000000001 0  -1 0.6000000000000001 0  -0.8 0.6000000000000001 0  -0.6000000000000001 0.6000000000000001 0  -0.3999999999999999 0.6000000000000001 0  -0.2 0.6000000000000001 0  0 0.6000000000000001 0  0.2000000000000002 0.6000000000000001 0  0.3999999999999999 0.6000000000000001 0  0.6000000000000001 0.6000000000000001 0  0.7999999999999998 0.6000000000000001 0  1 0.6000000000000001 0  1.2 0.6000000000000001 0  1.4 0.6000000000000001 0  1.6 0.6000000000000001 0  1.8 0.6000000000000001 0  2 0.6000000000000001 0  -2 0.7999999999999998 0  -1.8 0.7999999999999998 0  -1.6 0.7999999999999998 0  -1.4 0.7999999999999998 0  -1.2 0.7999999999999998 0  -1 0.7999999999999998 0  -0.8 0.7999999999999998 0  -0.6000000000000001 0.7999999999999998 0  -0.3999999999999999 0.7999999999999998 0  -0.2 0.7999999999999998 0  0 0.7999999999999998 0  0.2000000000000002 0.7999999999999998 0  0.3999999999999999 0.7999999999999998 0  0.6000000000000001 0.7999999999999998 0  0.7999999999999998 0.7999999999999998 0  1 0.7999999999999998 0  1.2 0.7999999999999998 0  1.4 0.7999999999999998 0  1.6 0.7999999999999998 0  1.8 0.7999999999999998 0  2 0.7999999999999998 0  -2 1 0  -1.8 1 0  -1.6 1 0  -1.4 1 0  -1.2 1 0  -1 1 0  -0.8 1 0  -0.6000000000000001 1 0  -0.3999999999999999 1 0  -0.2 1 0  0 1 0  0.2000000000000002 1 0  0.3999999999999999 1 0  0.6000000000000001 1 0  0.7999999999999998 1 0  1 1 0  1.2 1 0  1.4 1 0  1.6 1 0  1.8 1 0  2 1 0  -2 1.2 0  -1.8 1.2 0  -1.6 1.2 0  -1.4 1.2 0  -1.2 1.2 0  -1 1.2 0  -0.8 1.2 0  -0.6000000000000001 1.2 0  -0.3999999999999999 1.2 0  -0.2 1.2 0  0 1.2 0  0.2000000000000002 1.2 0  0.3999999999999999 1.2 0  0.6000000000000001 1.2 0  0.7999999999999998 1.2 0  1 1.2 0  1.2 1.2 0  1.4 1.2 0  1.6 1.2 0  1.8 1.2 0  2 1.2 0  -2 1.4 0  -1.8 1.4 0  -1.6 1.4 0  -1.4 1.4 0  -1.2 1.4 0  -1 1.4 0  -0.8 1.4 0  -0.6000000000000001 1.4 0  -0.3999999999999999 1.4 0  -0.2 1.4 0  0 1.4 0  0.2000000000000002 1.4 0  0.3999999999999999 1.4 0  0.6000000000000001 1.4 0  0.7999999999999998 1.4 0  1 1.4 0  1.2 1.4 0  1.4 1.4 0  1.6 1.4 0  1.8 1.4 0  2 1.4 0  -2 1.6 0  -1.8 1.6 0  -1.6 1.6 0  -1.4 1.6 0  -1.2 1.6 0  -1 1.6 0  -0.8 1.6 0  -0.6000000000000001 1.6 0  -0.3999999999999999 1.6 0  -0.2 1.6 0  0 1.6 0  0.2000000000000002 1.6 0  0.3999999999999999 1.6 0  0.6000000000000001 1.6 0  0.7999999999999998 1.6 0  1 1.6 0  1.2 1.6 0  1.4 1.6 0  1.6 1.6 0  1.8 1.6 0  2 1.6 0  -2 1.8 0  -1.8 1.8 0  -1.6 1.8 0  -1.4 1.8 0  -1.2 1.8 0  -1 1.8 0  -0.8 1.8 0  -0.6000000000000001 1.8 0  -0.3999999999999999 1.8 0  -0.2 1.8 0  0 1.8 0  0.2000000000000002 1.8 0  0.3999999999999999 1.8 0  0.6000000000000001 1.8 0  0.7999999999999998 1.8 0  1 1.8 0  1.2 1.8 0  1.4 1.8 0  1.6 1.8 0  1.8 1.8 0  2 1.8 0  -2 2 0  -1.8 2 0  -1.6 2 0  -1.4 2 0  -1.2 2 0  -1 2 0  -0.8 2 0  -0.6000000000000001 2 0  -0.3999999999999999 2 0  -0.2 2 0  0 2 0  0.2000000000000002 2 0  0.3999999999999999 2 0  0.6000000000000001 2 0  0.7999999999999998 2 0  1 2 0  1.2 2 0  1.4 2 0  1.6 2 0  1.8 2 0  2 2 0  </DataArray>
</Points>
<Cells>
[...]
<PointData  Scalars="f_8"> 
<DataArray  type="Float64"  Name="f_8"  format="ascii">1.2581833662718611e-01  1.2096476500834233e-01  1.0964255933389701e-01  9.3741642635534722e-02  7.5669206894206864e-02  5.7737238485993159e-02  4.1701294252088475e-02  2.8554915406619537e-02  1.8569352899448340e-02  1.1489568985299228e-02  6.7774211399604786e-03  3.8194087511717158e-03  2.0609658178526139e-03  1.0673794266167220e-03  5.3191161885328376e-04  2.5576335290161781e-04  1.1906971285328129e-04  5.4004434770593747e-05  2.4373127152651715e-05  1.2075093419918386e-05  9.1653465513484559e-06  1.2441074389265605e-01  1.2061583395073179e-01  1.1000061393822914e-01  9.4450513803134586e-02  7.6417359962213188e-02  5.8308752791238566e-02  4.1997802811842587e-02  2.8581370270330649e-02  1.8395732830550949e-02  1.1207854162856235e-02  6.4690773758662471e-03  3.5393692620106715e-03  1.8359626879487251e-03  9.0258453779765591e-04  4.1995346039545845e-04  1.8436040033863098e-04  7.5887674217047738e-05  2.8914774721954714e-05  9.9220494554118380e-06  2.9546577599141413e-06  1.1523871999884989e-06  1.2442216253997623e-01  1.2069540531417208e-01  1.1018556355125909e-01  9.4693763124005736e-02  7.6640590999456568e-02  5.8446397757852028e-02  4.2021248899085907e-02  2.8500957379262910e-02  1.8247144952276050e-02  1.1033614704138626e-02  6.3040430505649607e-03  3.4040962834008311e-03  1.7371244078471435e-03  8.3726855468673584e-04  3.8067534893610204e-04  1.6288924371517997e-04  6.5338019470563308e-05  2.4412901444877161e-05  8.4358185345150158e-06  2.7944304060026481e-06  1.4406242718806342e-06  1.2449797156502725e-01  1.2077522141491605e-01  1.1026863531973674e-01  9.4768553761492375e-02  7.6690733321468488e-02  5.8460110239770394e-02  4.1997454239014707e-02  2.8449223824889742e-02  1.8182770033006661e-02  1.0971393607285447e-02  6.2538877236845676e-03  3.3697659096369637e-03  1.7174720870265176e-03  8.2855703237609969e-04  3.7868219973294218e-04  1.6417826310412758e-04  6.7683933949814725e-05  2.6679680349906918e-05  1.0243063147596554e-05  4.1971112246940606e-06  2.7170739591929531e-06  1.2451923584404917e-01  1.2079592225075089e-01  1.1028665463433200e-01  9.4781098783139908e-02  7.6695341789748406e-02  5.8456112225403548e-02  4.1986689450696973e-02  2.8435427110771651e-02  1.8170026234677360e-02  1.0962612058792055e-02  6.2500650926830235e-03  3.3701971874268910e-03  1.7205401761744468e-03  8.3257352259206887e-04  3.8242263601903111e-04  1.6703291363326465e-04  6.9540400946874716e-05  2.7707355969482224e-05  1.0704607082516913e-05  4.3400541401398869e-06  2.7464652876848336e-06  1.2452067166826318e-01  1.2079705838432984e-01  1.1028718078913856e-01  9.4780772209178119e-02  7.6694132912857052e-02  5.8454333594699280e-02  4.1984959698506415e-02  2.8434432143724486e-02  1.8170206670428977e-02  1.0963971404402608e-02  6.2522056167421871e-03  3.3725361140587557e-03  1.7225622904901660e-03  8.3399059383270117e-04  3.8319543795325945e-04  1.6729328881246092e-04  6.9482936191912143e-05  2.7504843306890898e-05  1.0467140826549816e-05  4.1105734745809361e-06  2.5160012220068065e-06  1.2452033942296271e-01  1.2079667395926687e-01  1.1028676573937284e-01  9.4780368431992071e-02  7.6693805533277370e-02  5.8454162544657060e-02  4.1985011318631638e-02  2.8434719675892423e-02  1.8170666057245044e-02  1.0964475293153645e-02  6.2526130451783860e-03  3.3727496940496584e-03  1.7225605544528811e-03  8.3382186095306296e-04  3.8294390041251582e-04  1.6704025431828274e-04  6.9281796306344041e-05  2.7375296749169238e-05  1.0403001462188913e-05  4.0913639490208826e-06  2.5145120080647342e-06  1.2452032108916967e-01  1.2079665710348013e-01  1.1028675597121966e-01  9.4780371775675623e-02  7.6693826405824353e-02  5.8454200848926330e-02  4.1985059442182726e-02  2.8434761740984790e-02  1.8170681914682432e-02  1.0964448975316407e-02  6.2525413976696441e-03  3.3726455337121041e-03  1.7224478222048378e-03  8.3372550392791026e-04  3.8288035576198508e-04  1.6701328574337033e-04  6.9284572499566331e-05  2.7396175754935785e-05  1.0431477739571746e-05  4.1217636513659433e-06  2.5467097200678450e-06  1.2452032997697864e-01  1.2079666731769959e-01  1.1028676690735824e-01  9.4780382439676653e-02  7.6693835390637788e-02  5.8454206425349674e-02  4.1985059881135690e-02  2.8434755973396692e-02  1.8170670409259796e-02  1.0964434334704697e-02  6.2525280275250589e-03  3.3726381745994923e-03  1.7224495552409804e-03  8.3373635931370700e-04  3.8289735574408566e-04  1.6703184501201600e-04  6.9300385271924963e-05  2.7406602798554909e-05  1.0435972176233285e-05  4.1215620003821049e-06  2.5443925920185246e-06  1.2452032943067277e-01  1.2079666665456970e-01  1.1028676609230571e-01  9.4780381442853973e-02  7.6693834217415643e-02  5.8454205157992878e-02  4.1985058722557402e-02  2.8434755270100621e-02  1.8170670612987723e-02  1.0964435864719414e-02  6.2525310485015530e-03  3.3726423946266633e-03  1.7224541958632202e-03  8.3374037955898268e-04  3.8289984868482301e-04  1.6703239363457303e-04  6.9299176436268903e-05  2.7404245201451446e-05  1.0433131925431869e-05  4.1186097151932985e-06  2.5412342334980688e-06  1.2452032929309170e-01  1.2079666648139446e-01  1.1028676589359376e-01  9.4780381241946127e-02  7.6693834047800835e-02  5.8454205056740684e-02  4.1985058719893956e-02  2.8434755375399145e-02  1.8170670799183587e-02  1.0964436057108971e-02  6.2525311287367638e-03  3.3726422302989543e-03  1.7224536939598151e-03  8.3373954194639391e-04  3.8289879608245978e-04  1.6703133655141943e-04  6.9298343033062133e-05  2.7403802921593475e-05  1.0433139170116935e-05  4.1190056843677501e-06  2.5418429280900614e-06  1.2452032942966622e-01  1.2079666662318818e-01  1.1028676604663618e-01  9.4780381389043766e-02  7.6693834159315438e-02  5.8454205103581958e-02  4.1985058684433689e-02  2.8434755256832468e-02  1.8170670612427449e-02  1.0964435827499437e-02  6.2525308864609117e-03  3.3726420072028207e-03  1.7224535219216241e-03  8.3373944946721899e-04  3.8289880098999721e-04  1.6703143730885405e-04  6.9298515093888928e-05  2.7404005831556850e-05  1.0433334493678180e-05  4.1191789455213323e-06  2.5420183209599703e-06  1.2452032747945584e-01  1.2079666512205270e-01  1.1028676510350446e-01  9.4780381068638217e-02  7.6693834456357843e-02  5.8454205921197176e-02  4.1985059839961508e-02  2.8434756521276056e-02  1.8170671769673196e-02  1.0964436727858797e-02  6.2525314725933598e-03  3.3726423057243537e-03  1.7224536105539434e-03  8.3373941796509852e-04  3.8289872178287902e-04  1.6703135296652175e-04  6.9298440654480515e-05  2.7403938970268249e-05  1.0433266400448291e-05  4.1191020709522168e-06  2.5419311596324357e-06  1.2452033467451060e-01  1.2079667008119313e-01  1.1028676663693043e-01  9.4780379107025858e-02  7.6693829853503537e-02  5.8454200098176055e-02  4.1985054322372727e-02  2.8434752493673360e-02  1.8170669793988823e-02  1.0964436711550280e-02  6.2525328595632547e-03  3.3726443708009361e-03  1.7224557198924752e-03  8.3374117027785511e-04  3.8289996243303254e-04  1.6703210695625769e-04  6.9298822988224823e-05  2.7404082873510470e-05  1.0433283422183145e-05  4.1190691652927820e-06  2.5418930033116834e-06  1.2452039691719978e-01  1.2079672385988854e-01  1.1028681328309775e-01  9.4780416863445030e-02  7.6693855091820876e-02  5.8454209667923203e-02  4.1985047665102346e-02  2.8434732456687671e-02  1.8170641843336326e-02  1.0964407089251003e-02  6.2525066841612881e-03  3.3726245195597540e-03  1.7224427584699193e-03  8.3373404151719586e-04  3.8289691328997070e-04  1.6703143256087557e-04  6.9299256045080593e-05  2.7404868078818271e-05  1.0434069878400055e-05  4.1197478734271528e-06  2.5424577075305690e-06  1.2451988116074944e-01  1.2079629400656029e-01  1.1028653302897318e-01  9.4780311044921489e-02  7.6693911215026098e-02  5.8454385550125457e-02  4.1985284470701878e-02  2.8434971054333610e-02  1.8170837729098943e-02  1.0964538568044324e-02  6.2525740828028491e-03  3.3726426524486159e-03  1.7224313945591824e-03  8.3371054105096649e-04  3.8287277834414134e-04  1.6701222454967008e-04  6.9286283516236760e-05  2.7397177098390937e-05  1.0429937991994103e-05  4.1175150906869669e-06  2.5408685258409976e-06  1.2451755894160144e-01  1.2079418277834131e-01  1.1028459586993512e-01  9.4778572732232419e-02  7.6692478557508756e-02  5.8453405541248921e-02  4.1984858740612432e-02  2.8435087108501070e-02  1.8171362954676990e-02  1.0965273913541665e-02  6.2533276912624669e-03  3.3732827354115928e-03  1.7229013045592608e-03  8.3401348470791799e-04  3.8304431457961477e-04  1.6709584817693328e-04  6.9318894153400182e-05  2.7404084697300511e-05  1.0425866895238858e-05  4.1100264429150679e-06  2.5338268869156199e-06  1.2452927515512090e-01  1.2080459200561013e-01  1.1029145341868325e-01  9.4780175569293343e-02  7.6688408990961965e-02  5.8444824605133755e-02  4.1974033049651631e-02  2.8424456571994605e-02  1.8162707017652567e-02  1.0959348572872887e-02  6.2499909653957733e-03  3.3718836244674391e-03  1.7226750994378626e-03  8.3433389234628392e-04  3.8351091128486982e-04  1.6751046362611780e-04  6.9618141465041528e-05  2.7594172991234412e-05  1.0538561866637838e-05  4.1798794752869212e-06  2.5884213384143179e-06  1.2461475503856186e-01  1.2088856514141465e-01  1.1036768780881873e-01  9.4836499628859650e-02  7.6713971195929334e-02  5.8436301642916681e-02  4.1937101550685377e-02  2.8370772545479074e-02  1.8105023082708976e-02  1.0907521919155351e-02  6.2092654149626773e-03  3.3432861305408138e-03  1.7045301655170006e-03  8.2388268481468701e-04  3.7805406668005379e-04  1.6495493763229299e-04  6.8578664395906557e-05  2.7266111775702500e-05  1.0507697328435075e-05  4.2529872003454242e-06  2.6634397233713663e-06  1.2469506981185832e-01  1.2103625915868926e-01  1.1059633919165145e-01  9.5090826426278238e-02  7.6921074473319376e-02  5.8543970232919351e-02  4.1930935124598973e-02  2.8270767247900685e-02  1.7949961493502139e-02  1.0737639643427185e-02  6.0545244442597197e-03  3.2194141632195901e-03  1.6149950920221429e-03  7.6450520450609041e-04  3.4153299991746829e-04  1.4395513503978979e-04  5.7217296898294759e-05  2.1442014328753908e-05  7.6260696123061448e-06  2.7462608442729374e-06  1.4991241689356247e-06  1.2332048718150775e-01  1.2070103894642462e-01  1.1097479587429136e-01  9.5836657878450290e-02  7.7715916290544695e-02  5.9156302378594705e-02  4.2248808993683287e-02  2.8294705477378525e-02  1.7755212161389720e-02  1.0426697124009662e-02  5.7190028578379595e-03  2.9204035918508897e-03  1.3807089121980890e-03  5.9830915714868826e-04  2.3295554932242681e-04  7.7851850313345015e-05  1.9343313050872870e-05  7.7525849325015901e-07  -3.4020536380793621e-06  -3.5236593045019623e-06  -3.2927345726144562e-06  </DataArray> 
</PointData> 
</Piece>
</UnstructuredGrid>
</VTKFile>