<?xml version="1.0"?>
<VTKFile type="UnstructuredGrid"  version="0.1"  >
<UnstructuredGrid>
<Piece  NumberOfPoints="441" NumberOfCells="800">
<Points>
<DataArray  type="Float64"  NumberOfComponents="3"  format="ascii">-2 -2 0  -1.8 -2 0  -1.6 -2 0  -1.4 -2 0  -1.2 -2 0  -1 -2 0  -0.8 -2 0  -0.6000000000000001 -2 0  -0.3999999999999999 -2 0  -0.2 -2 0  0 -2 0  0.2000000000000002 -2 0  0.3999999999999999 -2 0  0.6000000000000001 -2 0  0.7999999999999998 -2 0  1 -2 0  1.2 -2 0  1.4 -2 0  1.6 -2 0  1.8 -2 0  2 -2 0  -2 -1.8 0  -1.8 -1.8 0  -1.6 -1.8 0  -1.4 -1.8 0  -1.2 -1.8 0  -1 -1.8 0  -0.8 -1.8 0  -0.6000000000000001 -1.8 0  -0.3999999999999999 -1.8 0  -0.2 -1.8 0  0 -1.8 0  0.2000000000000002 -1.8 0  0.3999999999999999 -1.8 0  0.6000000000000001 -1.8 0  0.7999999999999998 -1.8 0  1 -1.8 0  1.2 -1.8 0  1.4 -1.8 0  1.6 -1.8 0  1.8 -1.8 0  2 -1.8 0  -2 -1.6 0  -1.8 -1.6 0  -1.6 -1.6 0  -1.4 -1.6 0  -1.2 -1.6 0  -1 -1.6 0  -0.8 -1.6 0  -0.6000000000000001 -1.6 0  -0.3999999999999999 -1.6 0  -0.2 -1.6 0  0 -1.6 0  0.2000000000000002 -1.6 0  0.3999999999999999 -1.6 0  0.6000000000000001 -1.6 0  0.7999999999999998 -1.6 0  1 -1.6 0  1.2 -1.6 0  1.4 -1.6 0  1.6 -1.6 0  1.8 -1.6 0  2 -1.6 0  -2 -1.4 0  -1.8 -1.4 0  -1.6 -1.4 0  -1.4 -1.4 0  -1.2 -1.4 0  -1 -1.4 0  -0.8 -1.4 0  -0.6000000000000001 -1.4 0  -0.3999999999999999 -1.4 0  -0.2 -1.4 0  0 -1.4 0  0.2000000000000002 -1.4 0  0.3999999999999999 -1.4 0  0.6000000000000001 -1.4 0  0.7999999999999998 -1.4 0  1 -1.4 0  1.2 -1.4 0  1.4 -1.4 0  1.6 -1.4 0  1.8 -1.4 0  2 -1.4 0  -2 -1.2 0  -1.8 -1.2 0  -1.6 -1.2 0  -1.4 -1.2 0  -1.2 -1.2 0  -1 -1.2 0  -0.8 -1.2 0  -0.6000000000000001 -1.2 0  -0.3999999999999999 -1.2 0  -0.2 -1.2 0  0 -1.2 0  0.2000000000000002 -1.2 0  0.3999999999999999 -1.2 0  0.6000000000000001 -1.2 0  0.7999999999999998 -1.2 0  1 -1.2 0  1.2 -1.2 0  1.4 -1.2 0  1.6 -1.2 0  1.8 -1.2 0  2 -1.2 0  -2 -1 0  -1.8 -1 0  -1.6 -1 0  -1.4 -1 0  -1.2 -1 0  -1 -1 0  -0.8 -1 0  -0.6000000000000001 -1 0  -0.3999999999999999 -1 0  -0.2 -1 0  0 -1 0  0.2000000000000002 -1 0  0.3999999999999999 -1 0  0.6000000000000001 -1 0  0.7999999999999998 -1 0  1 -1 0  1.2 -1 0  1.4 -1 0  1.6 -1 0  1.8 -1 0  2 -1 0  -2 -0.8 0  -1.8 -0.8 0  -1.6 -0.8 0  -1.4 -0.8 0  -1.2 -0.8 0  -1 -0.8 0  -0.8 -0.8 0  -0.6000000000000001 -0.8 0  -0.3999999999999999 -0.8 0  -0.2 -0.8 0  0 -0.8 0  0.2000000000000002 -0.8 0  0.3999999999999999 -0.8 0  0.6000000000000001 -0.8 0  0.7999999999999998 -0.8 0  1 -0.8 0  1.2 -0.8 0  1.4 -0.8 0  1.6 -0.8 0  1.8 -0.8 0  2 -0.8 0  -2 -0.6000000000000001 0  -1.8 -0.6000000000000001 0  -1.6 -0.6000000000000001 0  -1.4 -0.6000000000000001 0  -1.2 -0.6000000000000001 0  -1 -0.6000000000000001 0  -0.8 -0.6000000000000001 0  -0.6000000000000001 -0.6000000000000001 0  -0.3999999999999999 -0.6000000000000001 0  -0.2 -0.6000000000000001 0  0 -0.6000000000000001 0  0.2000000000000002 -0.6000000000000001 0  0.3999999999999999 -0.6000000000000001 0  0.6000000000000001 -0.6000000000000001 0  0.7999999999999998 -0.6000000000000001 0  1 -0.6000000000000001 0  1.2 -0.6000000000000001 0  1.4 -0.6000000000000001 0  1.6 -0.6000000000000001 0  1.8 -0.6000000000000001 0  2 -0.6000000000000001 0  -2 -0.3999999999999999 0  -1.8 -0.3999999999999999 0  -1.6 -0.3999999999999999 0  -1.4 -0.3999999999999999 0  -1.2 -0.3999999999999999 0  -1 -0.3999999999999999 0  -0.8 -0.3999999999999999 0  -0.6000000000000001 -0.3999999999999999 0  -0.3999999999999999 -0.3999999999999999 0  -0.2 -0.3999999999999999 0  0 -0.3999999999999999 0  0.2000000000000002 -0.3999999999999999 0  0.3999999999999999 -0.3999999999999999 0  0.6000000000000001 -0.3999999999999999 0  0.7999999999999998 -0.3999999999999999 0  1 -0.3999999999999999 0  1.2 -0.3999999999999999 0  1.4 -0.3999999999999999 0  1.6 -0.3999999999999999 0  1.8 -0.3999999999999999 0  2 -0.3999999999999999 0  -2 -0.2 0  -1.8 -0.2 0  -1.6 -0.2 0  -1.4 -0.2 0  -1.2 -0.2 0  -1 -0.2 0  -0.8 -0.2 0  -0.6000000000000001 -0.2 0  -0.3999999999999999 -0.2 0  -0.2 -0.2 0  0 -0.2 0  0.2000000000000002 -0.2 0  0.3999999999999999 -0.2 0  0.6000000000000001 -0.2 0  0.7999999999999998 -0.2 0  1 -0.2 0  1.2 -0.2 0  1.4 -0.2 0  1.6 -0.2 0  1.8 -0.2 0  2 -0.2 0  -2 0 0  -1.8 0 0  -1.6 0 0  -1.4 0 0  -1.2 0 0  -1 0 0  -0.8 0 0  -0.6000000000000001 0 0  -0.3999999999999999 0 0  -0.2 0 0  0 0 0  0.2000000000000002 0 0  0.3999999999999999 0 0  0.6000000000000001 0 0  0.7999999999999998 0 0  1 0 0  1.2 0 0  1.4 0 0  1.6 0 0  1.8 0 0  2 0 0  -2 0.2000000000000002 0  -1.8 0.2000000000000002 0  -1.6 0.2000000000000002 0  -1.4 0.2000000000000002 0  -1.2 0.2000000000000002 0  -1 0.2000000000000002 0  -0.8 0.2000000000000002 0  -0.6000000000000001 0.2000000000000002 0  -0.3999999999999999 0.2000000000000002 0  -0.2 0.2000000000000002 0  0 0.2000000000000002 0  0.2000000000000002 0.2000000000000002 0  0.3999999999999999 0.2000000000000002 0  0.6000000000000001 0.2000000000000002 0  0.7999999999999998 0.2000000000000002 0  1 0.2000000000000002 0  1.2 0.2000000000000002 0  1.4 0.2000000000000002 0  1.6 0.2000000000000002 0  1.8 0.2000000000000002 0  2 0.2000000000000002 0  -2 0.3999999999999999 0  -1.8 0.3999999999999999 0  -1.6 0.3999999999999999 0  -1.4 0.3999999999999999 0  -1.2 0.3999999999999999 0  -1 0.3999999999999999 0  -0.8 0.3999999999999999 0  -0.6000000000000001 0.3999999999999999 0  -0.3999999999999999 0.3999999999999999 0  -0.2 0.3999999999999999 0  0 0.3999999999999999 0  0.2000000000000002 0.3999999999999999 0  0.3999999999999999 0.3999999999999999 0  0.6000000000000001 0.3999999999999999 0  0.7999999999999998 0.3999999999999999 0  1 0.3999999999999999 0  1.2 0.3999999999999999 0  1.4 0.3999999999999999 0  1.6 0.3999999999999999 0  1.8 0.3999999999999999 0  2 0.3999999999999999 0  -2 0.6000000000000001 0  -1.8 0.6000000000000001 0  -1.6 0.6000000000000001 0  -1.4 0.6000000000000001 0  -1.2 0.6000000000000001 0  -1 0.6000000000000001 0  -0.8 0.6000000000000001 0  -0.6000000000000001 0.6000000000000001 0  -0.3999999999999999 0.6000000000000001 0  -0.2 0.6000000000000001 0  0 0.6000000000000001 0  0.2000000000000002 0.6000000000000001 0  0.3999999999999999 0.6000000000000001 0  0.6000000000000001 0.6000000000000001 0  0.7999999999999998 0.6000000000000001 0  1 0.6000000000000001 0  1.2 0.6000000000000001 0  1.4 0.6000000000000001 0  1.6 0.6000000000000001 0  1.8 0.6000000000000001 0  2 0.6000000000000001 0  -2 0.7999999999999998 0  -1.8 0.7999999999999998 0  -1.6 0.7999999999999998 0  -1.4 0.7999999999999998 0  -1.2 0.7999999999999998 0  -1 0.7999999999999998 0  -0.8 0.7999999999999998 0  -0.6000000000000001 0.7999999999999998 0  -0.3999999999999999 0.7999999999999998 0  -0.2 0.7999999999999998 0  0 0.7999999999999998 0  0.2000000000000002 0.7999999999999998 0  0.3999999999999999 0.7999999999999998 0  0.6000000000000001 0.7999999999999998 0  0.7999999999999998 0.7999999999999998 0  1 0.7999999999999998 0  1.2 0.7999999999999998 0  1.4 0.7999999999999998 0  1.6 0.7999999999999998 0  1.8 0.7999999999999998 0  2 0.7999999999999998 0  -2 1 0  -1.8 1 0  -1.6 1 0  -1.4 1 0  -1.2 1 0  -1 1 0  -0.8 1 0  -0.6000000000000001 1 0  -0.3999999999999999 1 0  -0.2 1 0  0 1 0  0.2000000000000002 1 0  0.3999999999999999 1 0  0.6000000000000001 1 0  0.7999999999999998 1 0  1 1 0  1.2 1 0  1.4 1 0  1.6 1 0  1.8 1 0  2 1 0  -2 1.2 0  -1.8 1.2 0  -1.6 1.2 0  -1.4 1.2 0  -1.2 1.2 0  -1 1.2 0  -0.8 1.2 0  -0.6000000000000001 1.2 0  -0.3999999999999999 1.2 0  -0.2 1.2 0  0 1.2 0  0.2000000000000002 1.2 0  0.3999999999999999 1.2 0  0.6000000000000001 1.2 0  0.7999999999999998 1.2 0  1 1.2 0  1.2 1.2 0  1.4 1.2 0  1.6 1.2 0  1.8 1.2 0  2 1.2 0  -2 1.4 0  -1.8 1.4 0  -1.6 1.4 0  -1.4 1.4 0  -1.2 1.4 0  -1 1.4 0  -0.8 1.4 0  -0.6000000000000001 1.4 0  -0.3999999999999999 1.4 0  -0.2 1.4 0  0 1.4 0  0.2000000000000002 1.4 0  0.3999999999999999 1.4 0  0.6000000000000001 1.4 0  0.7999999999999998 1.4 0  1 1.4 0  1.2 1.4 0  1.4 1.4 0  1.6 1.4 0  1.8 1.4 0  2 1.4 0  -2 1.6 0  -1.8 1.6 0  -1.6 1.6 0  -1.4 1.6 0  -1.2 1.6 0  -1 1.6 0  -0.8 1.6 0  -0.6000000000000001 1.6 0  -0.3999999999999999 1.6 0  -0.2 1.6 0  0 1.6 0  0.2000000000000002 1.6 0  0.3999999999999999 1.6 0  0.6000000000000001 1.6 0  0.7999999999999998 1.6 0  1 1.6 0  1.2 1.6 0  1.4 1.6 0  1.6 1.6 0  1.8 1.6 0  2 1.6 0  -2 1.8 0  -1.8 1.8 0  -1.6 1.8 0  -1.4 1.8 0  -1.2 1.8 0  -1 1.8 0  -0.8 1.8 0  -0.6000000000000001 1.8 0  -0.3999999999999999 1.8 0  -0.2 1.8 0  0 1.8 0  0.2000000000000002 1.8 0  0.3999999999999999 1.8 0  0.6000000000000001 1.8 0  0.7999999999999998 1.8 0  1 1.8 0  1.2 1.8 0  1.4 1.8 0  1.6 1.8 0  1.8 1.8 0  2 1.8 0  -2 2 0  -1.8 2 0  -1.6 2 0  -1.4 2 0  -1.2 2 0  -1 2 0  -0.8 2 0  -0.6000000000000001 2 0  -0.3999999999999999 2 0  -0.2 2 0  0 2 0  0.2000000000000002 2 0  0.3999999999999999 2 0  0.6000000000000001 2 0  0.7999999999999998 2 0  1 2 0  1.2 2 0  1.4 2 0  1.6 2 0  1.8 2 0  2 2 0  </DataArray>
</Points>
<Cells>
[...]
<PointData  Scalars="f_8"> 
<DataArray  type="Float64"  Name="f_8"  format="ascii">9.2703648642754894e-03  0.0000000000000000e+00  0.0000000000000000e+00  0.0000000000000000e+00  0.0000000000000000e+00  0.0000000000000000e+00  0.0000000000000000e+00  0.0000000000000000e+00  0.0000000000000000e+00  0.0000000000000000e+00  0.0000000000000000e+00  0.0000000000000000e+00  0.0000000000000000e+00  0.0000000000000000e+00  0.0000000000000000e+00  0.0000000000000000e+00  0.0000000000000000e+00  0.0000000000000000e+00  0.0000000000000000e+00  0.0000000000000000e+00  0.0000000000000000e+00  9.7427600935434053e-02  9.6572921593931174e-02  9.5107681356567414e-02  9.3017321121027688e-02  9.0303961091185311e-02  8.6991513231149536e-02  8.3119669419830344e-02  7.8739154811966763e-02  7.3907751971730717e-02  6.8686855423532575e-02  6.3138463317157847e-02  5.7322593618574745e-02  5.1295151199311953e-02  4.5106284679083557e-02  3.8799267729720074e-02  3.2409925425969384e-02  2.5966606855852475e-02  1.9490684122394096e-02  1.2997537907888433e-02  6.4979733961949030e-03  0.0000000000000000e+00  1.8453568810859150e-01  1.8370157211775717e-01  1.8142604680422889e-01  1.7776735859977844e-01  1.7279743971042522e-01  1.6660365182991113e-01  1.5928771155481869e-01  1.5096286148898255e-01  1.4175002784414945e-01  1.3177350076188468e-01  1.2115654992665323e-01  1.1001730401789975e-01  9.8465155975932889e-02  8.6597895783045942e-02  7.4499713667074322e-02  6.2240158037127645e-02  4.9874074627962985e-02  3.7442497635631684e-02  2.4974411596738719e-02  1.2489255628591513e-02  0.0000000000000000e+00  2.5817067892553736e-01  2.5710632410465462e-01  2.5403994638603550e-01  2.4903012246696729e-01  2.4216784964240809e-01  2.3357232957794027e-01  2.2338598600529078e-01  2.1176874852840194e-01  1.9889181889694132e-01  1.8493122797660980e-01  1.7006152556972831e-01  1.5444994027429357e-01  1.3825131416934194e-01  1.2160406513507167e-01  1.0462736424283908e-01  8.7419642225986929e-02  7.0058462346768255e-02  5.2601721257105410e-02  3.5090068393030499e-02  1.7550371138439141e-02  0.0000000000000000e+00  3.1511721787456809e-01  3.1386754382025916e-01  3.1017871662221824e-01  3.0411774947769382e-01  2.9579190729496496e-01  2.8534393366296235e-01  2.7294591998859319e-01  2.5879214859992217e-01  2.4309129164515844e-01  2.2605838065833445e-01  2.0790697022989532e-01  1.8884190173529905e-01  1.6905303136501892e-01  1.4871022460870345e-01  1.2795984185616260e-01  1.0692285237868866e-01  8.5694622163429698e-02  6.4346330071151148e-02  4.2927881164878015e-02  2.1472109673995338e-02  0.0000000000000000e+00  3.5559377904664963e-01  3.5421092474782095e-01  3.5007762115693997e-01  3.4326793027001051e-01  3.3390129643507399e-01  3.2213734780216058e-01  3.0816908833912582e-01  2.9221487094623222e-01  2.7450960205545943e-01  2.5529566125042685e-01  2.3481402405247528e-01  2.1329605238022653e-01  1.9095636765650553e-01  1.6798715015169038e-01  1.4455412014445526e-01  1.2079435771819878e-01  9.6816014493496055e-02  7.2699868026595726e-02  4.8502573074368525e-02  2.4261377730841045e-02  0.0000000000000000e+00  3.8207108921616767e-01  3.8059718217860528e-01  3.7616959204037781e-01  3.6886714694006800e-01  3.5881737838571803e-01  3.4619100632492805e-01  3.3119468474299835e-01  3.1406242246664740e-01  2.9504616202488232e-01  2.7440603709950939e-01  2.5240083495774174e-01  2.2927916515980923e-01  2.0527178264937909e-01  1.8058543658837420e-01  1.5539852168102733e-01  1.2985870256706533e-01  1.0408257058874293e-01  7.8157281962789774e-02  5.2144022571678939e-02  2.6083051825969660e-02  0.0000000000000000e+00  3.9800879165464959e-01  3.9647507367494317e-01  3.9186579105772246e-01  3.8426272396865468e-01  3.7379833342884311e-01  3.6065004980313997e-01  3.4503274844155485e-01  3.2718984150444874e-01  3.0738348696501100e-01  2.8588445592063705e-01  2.6296220617997895e-01  2.3887568451009233e-01  2.1386532494316818e-01  1.8814663089560840e-01  1.6190563049546911e-01  1.3529638405142724e-01  1.0844060674672203e-01  8.1429354780796756e-02  5.4326614999034198e-02  2.7174541339665473e-02  0.0000000000000000e+00  4.0677490410410183e-01  4.0520344115534701e-01  4.0048970864275901e-01  3.9271719131314420e-01  3.8202112583056258e-01  3.6858268015269502e-01  3.5262128098128698e-01  3.3438552631775792e-01  3.1414319391204903e-01  2.9217089770446325e-01  2.6874395166413134e-01  2.4412697459283986e-01  2.1856571354824958e-01  1.9228048237903583e-01  1.6546151153394839e-01  1.3826639255618653e-01  1.1081968237383169e-01  8.3214615167068892e-02  5.5516759053287089e-02  2.7769355984638231e-02  0.0000000000000000e+00  4.1098425506236846e-01  4.0939017878980666e-01  4.0462201794089031e-01  3.9676415478304516e-01  3.8595322758517203e-01  3.7237225703934212e-01  3.5624290255957092e-01  3.3781628933694491e-01  3.1736292158600077e-01  2.9516223923981894e-01  2.7149238284572502e-01  2.4662070544200995e-01  2.2079551383598600e-01  1.9423943982800029e-01  1.6714474066877966e-01  1.3967071421398919e-01  1.1194329479025973e-01  8.4056777300090355e-02  5.6077505450562684e-02  2.8049260148000729e-02  0.0000000000000000e+00  4.1223167974629843e-01  4.1062566009583007e-01  4.0583629732065274e-01  3.9794832942088165e-01  3.8709889389081481e-01  3.7347163807143807e-01  3.5728895417082890e-01  3.3880278094585231e-01  3.1828448882607741e-01  2.9601440723087324e-01  2.7227156037875877e-01  2.4732415187454648e-01  2.2142128186736526e-01  1.9478629848623019e-01  1.6761208373046657e-01  1.4005845985541787e-01  1.1225178251085494e-01  8.4286668069831511e-02  5.6229690629373247e-02  2.8124784041752018e-02  0.0000000000000000e+00  4.1104655862650308e-01  4.0943787043188068e-01  4.0465504941734315e-01  3.9678272110644885e-01  3.8595776353252093e-01  3.7236343307222691e-01  3.5622161986308409e-01  3.3778367360638767e-01  3.1732031516428288e-01  2.9511119123000779e-01  2.7143463688329789e-01  2.4655818489743925e-01  2.2073030431682600e-01  1.9417376894847968e-01  1.6708095514512492e-01  1.3961125442079278e-01  1.1189066697728794e-01  8.4013523724042471e-02  5.6046172728920610e-02  2.8032366199110880e-02  0.0000000000000000e+00  4.0689701843001586e-01  4.0529767799927247e-01  4.0055595450274800e-01  3.9275575211192965e-01  3.8203272770988905e-01  3.6856847291191724e-01  3.5258284257023442e-01  3.3432486646299714e-01  3.1406275482332641e-01  2.9207354986581757e-01  2.6863298293560445e-01  2.4400607119538459e-01  2.1843893193234290e-01  1.9215221144381461e-01  1.6533642513222552e-01  1.3814939266559992e-01  1.1071583372127829e-01  8.3129072458470135e-02  5.5454688286672771e-02  2.7735851616979116e-02  0.0000000000000000e+00  3.9817667526975831e-01  3.9660672951455317e-01  3.9196099335566092e-01  3.8432165872485308e-01  3.7382162325175167e-01  3.6063879322480680e-01  3.4498856845821058e-01  3.2711493716719875e-01  3.0728068147271353e-01  2.8575723483007981e-01  2.6281473998248800e-01  2.3871283083333911e-01  2.1369260691124681e-01  1.8797018960757203e-01  1.6173215106181441e-01  1.3513299607830068e-01  1.0829476152049666e-01  8.1308682643990882e-02  5.4238767500616847e-02  2.7127023673804367e-02  0.0000000000000000e+00  3.8224576190388310e-01  3.8073884865217972e-01  3.7627779572398506e-01  3.6894147403263983e-01  3.5885754572764400e-01  3.4619698913063457e-01  3.3116687111757143e-01  3.1400177971969712e-01  2.9495439913238347e-01  2.7428574817517748e-01  2.5225561012813963e-01  2.2911365758862196e-01  2.0509172339835394e-01  1.8039759230679930e-01  1.5521059357260297e-01  1.2967916851514938e-01  1.0392047558883430e-01  7.8021985010978359e-02  5.2044910811740480e-02  2.6029234999214151e-02  0.0000000000000000e+00  3.5570323092634920e-01  3.5431019358000687e-01  3.5016571828798626e-01  3.4334300425325071e-01  3.3396085084291482e-01  3.2217853865702561e-01  3.0818907412447566e-01  2.9221118545340186e-01  2.7448051990024214e-01  2.5524052744585413e-01  2.3473352222252625e-01  2.1319239070799123e-01  1.9083336713747978e-01  1.6785022582810435e-01  1.4441015240822452e-01  1.2065145720250843e-01  9.6683190286291534e-02  7.2586614737221361e-02  4.8418397500135574e-02  2.4215290341291149e-02  0.0000000000000000e+00  3.1506592773888392e-01  3.1385331198840127e-01  3.1019926531113529e-01  3.0416847717615819e-01  2.9586634287704860e-01  2.8543431062407315e-01  2.7304382163890245e-01  2.5888917531121558e-01  2.4317970383565352e-01  2.2613167519788008e-01  2.0796035324829165e-01  1.8887262742903091e-01  1.6906058421881165e-01  1.4869633123566539e-01  1.2792830808411201e-01  1.0687923091769852e-01  8.5645725851539761e-02  6.4299615022180484e-02  4.2890732866254097e-02  2.1451072908100968e-02  0.0000000000000000e+00  2.5787552817650589e-01  2.5691573285130187e-01  2.5394849284361670e-01  2.4902840747197297e-01  2.4224337465033532e-01  2.3371047321002969e-01  2.2357099782393472e-01  2.1198470950098608e-01  1.9912352795151408e-01  1.8516497672461885e-01  1.7028572512002096e-01  1.5465556773901112e-01  1.3843215268881184e-01  1.2175671983337898e-01  1.0475104691758402e-01  8.7515729169548945e-02  7.0129841989628169e-02  5.2651960974840338e-02  3.5122442622645647e-02  1.7566805722238635e-02  0.0000000000000000e+00  1.8398739992809054e-01  1.8332901201999235e-01  1.8121616993580050e-01  1.7770216410560868e-01  1.7285608920760967e-01  1.6676389179810600e-01  1.5952693646506494e-01  1.5125899514277108e-01  1.4208229048351939e-01  1.3212307012893024e-01  1.2150709506145731e-01  1.1035535918216575e-01  9.8780301486561153e-02  8.6882718307969786e-02  7.4749527895374271e-02  6.2452482878463264e-02  5.0047869321184942e-02  3.7577176197954205e-02  2.5068668631341336e-02  1.2539754543758509e-02  0.0000000000000000e+00  9.6772363201462153e-02  9.6142586472388991e-02  9.4867061302533182e-02  9.2929139658646173e-02  9.0337896188104463e-02  8.7121694991355636e-02  8.3323301193865412e-02  7.8995840452619689e-02  7.4199250854009802e-02  6.8997073533020759e-02  6.3453544582075375e-02  5.7631013258566954e-02  5.1587739397528899e-02  4.5376128330614510e-02  3.9041452370262845e-02  3.2621089421348927e-02  2.6144285347417369e-02  1.9632420063662448e-02  1.3099729787646314e-02  6.5544104474164174e-03  0.0000000000000000e+00  8.9416660251478465e-03  0.0000000000000000e+00  0.0000000000000000e+00  0.0000000000000000e+00  0.0000000000000000e+00  0.0000000000000000e+00  0.0000000000000000e+00  0.0000000000000000e+00  0.0000000000000000e+00  0.0000000000000000e+00  0.0000000000000000e+00  0.0000000000000000e+00  0.0000000000000000e+00  0.0000000000000000e+00  0.0000000000000000e+00  0.0000000000000000e+00  0.0000000000000000e+00  0.0000000000000000e+00  0.0000000000000000e+00  0.0000000000000000e+00  0.0000000000000000e+00  </DataArray> 
</PointData> 
</Piece>
</UnstructuredGrid>
</VTKFile>