<?xml version="1.0"?>
<VTKFile type="UnstructuredGrid"  version="0.1"  >
<UnstructuredGrid>
<Piece  NumberOfPoints="441" NumberOfCells="800">
<Points>
<DataArray  type="Float64"  NumberOfComponents="3"  format="ascii">-2 -2 0  -1.8 -2 0  -1.6 -2 0  -1.4 -2 0  -1.2 -2 0  -1 -2 0  -0.8 -2 0  -0.6000000000000001 -2 0  -0.3999999999999999 -2 0  -0.2 -2 0  0 -2 0  0.2000000000000002 -2 0  0.3999999999999999 -2 0  0.6000000000000001 -2 0  0.7999999999999998 -2 0  1 -2 0  1.2 -2 0  1.4 -2 0  1.6 -2 0  1.8 -2 0  2 -2 0  -2 -1.8 0  -1.8 -1.8 0  -1.6 -1.8 0  -1.4 -1.8 0  -1.2 -1.8 0  -1 -1.8 0  -0.8 -1.8 0  -0.6000000000000001 -1.8 0  -0.3999999999999999 -1.8 0  -0.2 -1.8 0  0 -1.8 0  0.2000000000000002 -1.8 0  0.3999999999999999 -1.8 0  0.6000000000000001 -1.8 0  0.7999999999999998 -1.8 0  1 -1.8 0  1.2 -1.8 0  1.4 -1.8 0  1.6 -1.8 0  1.8 -1.8 0  2 -1.8 0  -2 -1.6 0  -1.8 -1.6 0  -1.6 -1.6 0  -1.4 -1.6 0  -1.2 -1.6 0  -1 -1.6 0  -0.8 -1.6 0  -0.6000000000000001 -1.6 0  -0.3999999999999999 -1.6 0  -0.2 -1.6 0  0 -1.6 0  0.2000000000000002 -1.6 0  0.3999999999999999 -1.6 0  0.6000000000000001 -1.6 0  0.7999999999999998 -1.6 0  1 -1.6 0  1.2 -1.6 0  1.4 -1.6 0  1.6 -1.6 0  1.8 -1.6 0  2 -1.6 0  -2 -1.4 0  -1.8 -1.4 0  -1.6 -1.4 0  -1.4 -1.4 0  -1.2 -1.4 0  -1 -1.4 0  -0.8 -1.4 0  -0.6000000000000001 -1.4 0  -0.3999999999999999 -1.4 0  -0.2 -1.4 0  0 -1.4 0  0.2000000000000002 -1.4 0  0.3999999999999999 -1.4 0  0.6000000000000001 -1.4 0  0.7999999999999998 -1.4 0  1 -1.4 0  1.2 -1.4 0  1.4 -1.4 0  1.6 -1.4 0  1.8 -1.4 0  2 -1.4 0  -2 -1.2 0  -1.8 -1.2 0  -1.6 -1.2 0  -1.4 -1.2 0  -1.2 -1.2 0  -1 -1.2 0  -0.8 -1.2 0  -0.6000000000000001 -1.2 0  -0.3999999999999999 -1.2 0  -0.2 -1.2 0  0 -1.2 0  0.2000000000000002 -1.2 0  0.3999999999999999 -1.2 0  0.6000000000000001 -1.2 0  0.7999999999999998 -1.2 0  1 -1.2 0  1.2 -1.2 0  1.4 -1.2 0  1.6 -1.2 0  1.8 -1.2 0  2 -1.2 0  -2 -1 0  -1.8 -1 0  -1.6 -1 0  -1.4 -1 0  -1.2 -1 0  -1 -1 0  -0.8 -1 0  -0.6000000000000001 -1 0  -0.3999999999999999 -1 0  -0.2 -1 0  0 -1 0  0.2000000000000002 -1 0  0.3999999999999999 -1 0  0.6000000000000001 -1 0  0.7999999999999998 -1 0  1 -1 0  1.2 -1 0  1.4 -1 0  1.6 -1 0  1.8 -1 0  2 -1 0  -2 -0.8 0  -1.8 -0.8 0  -1.6 -0.8 0  -1.4 -0.8 0  -1.2 -0.8 0  -1 -0.8 0  -0.8 -0.8 0  -0.6000000000000001 -0.8 0  -0.3999999999999999 -0.8 0  -0.2 -0.8 0  0 -0.8 0  0.2000000000000002 -0.8 0  0.3999999999999999 -0.8 0  0.6000000000000001 -0.8 0  0.7999999999999998 -0.8 0  1 -0.8 0  1.2 -0.8 0  1.4 -0.8 0  1.6 -0.8 0  1.8 -0.8 0  2 -0.8 0  -2 -0.6000000000000001 0  -1.8 -0.6000000000000001 0  -1.6 -0.6000000000000001 0  -1.4 -0.6000000000000001 0  -1.2 -0.6000000000000001 0  -1 -0.6000000000000001 0  -0.8 -0.6000000000000001 0  -0.6000000000000001 -0.6000000000000001 0  -0.3999999999999999 -0.6000000000000001 0  -0.2 -0.6000000000000001 0  0 -0.6000000000000001 0  0.2000000000000002 -0.6000000000000001 0  0.3999999999999999 -0.6000000000000001 0  0.6000000000000001 -0.6000000000000001 0  0.7999999999999998 -0.6000000000000001 0  1 -0.6000000000000001 0  1.2 -0.6000000000000001 0  1.4 -0.6000000000000001 0  1.6 -0.6000000000000001 0  1.8 -0.6000000000000001 0  2 -0.6000000000000001 0  -2 -0.3999999999999999 0  -1.8 -0.3999999999999999 0  -1.6 -0.3999999999999999 0  -1.4 -0.3999999999999999 0  -1.2 -0.3999999999999999 0  -1 -0.3999999999999999 0  -0.8 -0.3999999999999999 0  -0.6000000000000001 -0.3999999999999999 0  -0.3999999999999999 -0.3999999999999999 0  -0.2 -0.3999999999999999 0  0 -0.3999999999999999 0  0.2000000000000002 -0.3999999999999999 0  0.3999999999999999 -0.3999999999999999 0  0.6000000000000001 -0.3999999999999999 0  0.7999999999999998 -0.3999999999999999 0  1 -0.3999999999999999 0  1.2 -0.3999999999999999 0  1.4 -0.3999999999999999 0  1.6 -0.3999999999999999 0  1.8 -0.3999999999999999 0  2 -0.3999999999999999 0  -2 -0.2 0  -1.8 -0.2 0  -1.6 -0.2 0  -1.4 -0.2 0  -1.2 -0.2 0  -1 -0.2 0  -0.8 -0.2 0  -0.6000000000000001 -0.2 0  -0.3999999999999999 -0.2 0  -0.2 -0.2 0  0 -0.2 0  0.2000000000000002 -0.2 0  0.3999999999999999 -0.2 0  0.6000000000000001 -0.2 0  0.7999999999999998 -0.2 0  1 -0.2 0  1.2 -0.2 0  1.4 -0.2 0  1.6 -0.2 0  1.8 -0.2 0  2 -0.2 0  -2 0 0  -1.8 0 0  -1.6 0 0  -1.4 0 0  -1.2 0 0  -1 0 0  -0.8 0 0  -0.6000000000000001 0 0  -0.3999999999999999 0 0  -0.2 0 0  0 0 0  0.2000000000000002 0 0  0.3999999999999999 0 0  0.6000000000000001 0 0  0.7999999999999998 0 0  1 0 0  1.2 0 0  1.4 0 0  1.6 0 0  1.8 0 0  2 0 0  -2 0.2000000000000002 0  -1.8 0.2000000000000002 0  -1.6 0.2000000000000002 0  -1.4 0.2000000000000002 0  -1.2 0.2000000000000002 0  -1 0.2000000000000002 0  -0.8 0.2000000000000002 0  -0.6000000000000001 0.2000000000000002 0  -0.3999999999999999 0.2000000000000002 0  -0.2 0.2000000000000002 0  0 0.2000000000000002 0  0.2000000000000002 0.2000000000000002 0  0.3999999999999999 0.2000000000000002 0  0.6000000000000001 0.2000000000000002 0  0.7999999999999998 0.2000000000000002 0  1 0.2000000000000002 0  1.2 0.2000000000000002 0  1.4 0.2000000000000002 0  1.6 0.2000000000000002 0  1.8 0.2000000000000002 0  2 0.2000000000000002 0  -2 0.3999999999999999 0  -1.8 0.3999999999999999 0  -1.6 0.3999999999999999 0  -1.4 0.3999999999999999 0  -1.2 0.3999999999999999 0  -1 0.3999999999999999 0  -0.8 0.3999999999999999 0  -0.6000000000000001 0.3999999999999999 0  -0.3999999999999999 0.3999999999999999 0  -0.2 0.3999999999999999 0  0 0.3999999999999999 0  0.2000000000000002 0.3999999999999999 0  0.3999999999999999 0.3999999999999999 0  0.6000000000000001 0.3999999999999999 0  0.7999999999999998 0.3999999999999999 0  1 0.3999999999999999 0  1.2 0.3999999999999999 0  1.4 0.3999999999999999 0  1.6 0.3999999999999999 0  1.8 0.3999999999999999 0  2 0.3999999999999999 0  -2 0.6000000000000001 0  -1.8 0.6000000000000001 0  -1.6 0.6000000000000001 0  -1.4 0.6000000000000001 0  -1.2 0.6000000000000001 0  -1 0.6000000000000001 0  -0.8 0.6000000000000001 0  -0.6000000000000001 0.6000000000000001 0  -0.3999999999999999 0.6000000000000001 0  -0.2 0.6000000000000001 0  0 0.6000000000000001 0  0.2000000000000002 0.6000000000000001 0  0.3999999999999999 0.6000000000000001 0  0.6000000000000001 0.6000000000000001 0  0.7999999999999998 0.6000000000000001 0  1 0.6000000000000001 0  1.2 0.6000000000000001 0  1.4 0.6000000000000001 0  1.6 0.6000000000000001 0  1.8 0.6000000000000001 0  2 0.6000000000000001 0  -2 0.7999999999999998 0  -1.8 0.7999999999999998 0  -1.6 0.7999999999999998 0  -1.4 0.7999999999999998 0  -1.2 0.7999999999999998 0  -1 0.7999999999999998 0  -0.8 0.7999999999999998 0  -0.6000000000000001 0.7999999999999998 0  -0.3999999999999999 0.7999999999999998 0  -0.2 0.7999999999999998 0  0 0.7999999999999998 0  0.2000000000000002 0.7999999999999998 0  0.3999999999999999 0.7999999999999998 0  0.6000000000000001 0.7999999999999998 0  0.7999999999999998 0.7999999999999998 0  1 0.7999999999999998 0  1.2 0.7999999999999998 0  1.4 0.7999999999999998 0  1.6 0.7999999999999998 0  1.8 0.7999999999999998 0  2 0.7999999999999998 0  -2 1 0  -1.8 1 0  -1.6 1 0  -1.4 1 0  -1.2 1 0  -1 1 0  -0.8 1 0  -0.6000000000000001 1 0  -0.3999999999999999 1 0  -0.2 1 0  0 1 0  0.2000000000000002 1 0  0.3999999999999999 1 0  0.6000000000000001 1 0  0.7999999999999998 1 0  1 1 0  1.2 1 0  1.4 1 0  1.6 1 0  1.8 1 0  2 1 0  -2 1.2 0  -1.8 1.2 0  -1.6 1.2 0  -1.4 1.2 0  -1.2 1.2 0  -1 1.2 0  -0.8 1.2 0  -0.6000000000000001 1.2 0  -0.3999999999999999 1.2 0  -0.2 1.2 0  0 1.2 0  0.2000000000000002 1.2 0  0.3999999999999999 1.2 0  0.6000000000000001 1.2 0  0.7999999999999998 1.2 0  1 1.2 0  1.2 1.2 0  1.4 1.2 0  1.6 1.2 0  1.8 1.2 0  2 1.2 0  -2 1.4 0  -1.8 1.4 0  -1.6 1.4 0  -1.4 1.4 0  -1.2 1.4 0  -1 1.4 0  -0.8 1.4 0  -0.6000000000000001 1.4 0  -0.3999999999999999 1.4 0  -0.2 1.4 0  0 1.4 0  0.2000000000000002 1.4 0  0.3999999999999999 1.4 0  0.6000000000000001 1.4 0  0.7999999999999998 1.4 0  1 1.4 0  1.2 1.4 0  1.4 1.4 0  1.6 1.4 0  1.8 1.4 0  2 1.4 0  -2 1.6 0  -1.8 1.6 0  -1.6 1.6 0  -1.4 1.6 0  -1.2 1.6 0  -1 1.6 0  -0.8 1.6 0  -0.6000000000000001 1.6 0  -0.3999999999999999 1.6 0  -0.2 1.6 0  0 1.6 0  0.2000000000000002 1.6 0  0.3999999999999999 1.6 0  0.6000000000000001 1.6 0  0.7999999999999998 1.6 0  1 1.6 0  1.2 1.6 0  1.4 1.6 0  1.6 1.6 0  1.8 1.6 0  2 1.6 0  -2 1.8 0  -1.8 1.8 0  -1.6 1.8 0  -1.4 1.8 0  -1.2 1.8 0  -1 1.8 0  -0.8 1.8 0  -0.6000000000000001 1.8 0  -0.3999999999999999 1.8 0  -0.2 1.8 0  0 1.8 0  0.2000000000000002 1.8 0  0.3999999999999999 1.8 0  0.6000000000000001 1.8 0  0.7999999999999998 1.8 0  1 1.8 0  1.2 1.8 0  1.4 1.8 0  1.6 1.8 0  1.8 1.8 0  2 1.8 0  -2 2 0  -1.8 2 0  -1.6 2 0  -1.4 2 0  -1.2 2 0  -1 2 0  -0.8 2 0  -0.6000000000000001 2 0  -0.3999999999999999 2 0  -0.2 2 0  0 2 0  0.2000000000000002 2 0  0.3999999999999999 2 0  0.6000000000000001 2 0  0.7999999999999998 2 0  1 2 0  1.2 2 0  1.4 2 0  1.6 2 0  1.8 2 0  2 2 0  </DataArray>
</Points>
<Cells>
[...]
<PointData  Scalars="f_8"> 
<DataArray  type="Float64"  Name="f_8"  format="ascii">3.2681692842166232e-01  3.2660570484906748e-01  3.2607979185133329e-01  3.2524774752597518e-01  3.2412745881679517e-01  3.2274496453809393e-01  3.2113338514707085e-01  3.1933185554505561e-01  3.1738441315221672e-01  3.1533882647450007e-01  3.1324536914135576e-01  3.1115555644769022e-01  3.0912086894330260e-01  3.0719149248095357e-01  3.0541510765760660e-01  3.0383576488949599e-01  3.0249288577753342e-01  3.0142043890376291e-01  3.0064635198513034e-01  3.0019224798282590e-01  3.0007364015160559e-01  3.2671978009262342e-01  3.2655101409530118e-01  3.2605261117502482e-01  3.2523911821435042e-01  3.2413182706938465e-01  3.2275870802762968e-01  3.2115397141070029e-01  3.1935736120838504e-01  3.1741324960753642e-01  3.1536958312171276e-01  3.1327672184451344e-01  3.1118620873482589e-01  3.0914950330098218e-01  3.0721671211617119e-01  3.0543534631276031e-01  3.0384913278247272e-01  3.0249690035208798e-01  3.0141155336131936e-01  3.0061913053939976e-01  3.0013792275000917e-01  2.9997758161248950e-01  3.2669520176009414e-01  3.2652960512818319e-01  3.2603708423463568e-01  3.2523020307098310e-01  3.2412927981354012e-01  3.2276181974386398e-01  3.2116181856537629e-01  3.1936892531010019e-01  3.1742747247347236e-01  3.1538539161135209e-01  3.1329303889211385e-01  3.1120195881255741e-01  3.0916361636857942e-01  3.0722812888870993e-01  3.0544302876312929e-01  3.0385208765802985e-01  3.0249423179274471e-01  3.0140257698728040e-01  3.0060361241689321e-01  3.0011656515253821e-01  2.9995298706919149e-01  3.2668620489134725e-01  3.2652121552864105e-01  3.2603032767280399e-01  3.2522573850606790e-01  3.2412741002455386e-01  3.2276255166371753e-01  3.2116493117201422e-01  3.1937403021184235e-01  3.1743406397845608e-01  3.1539288751574640e-01  3.1330081454965830e-01  3.1120937719305319e-01  3.0917005665399538e-01  3.0723301605963532e-01  3.0544586669867857e-01  3.0385249842343320e-01  3.0249200368636359e-01  3.0139772275437970e-01  3.0059643502751110e-01  3.0010771790618157e-01  2.9994348973798435e-01  3.2668273953895816e-01  3.2651794814351009e-01  3.2602763695577031e-01  3.2522391830398351e-01  3.2412664178785766e-01  3.2276289751850701e-01  3.2116634090907165e-01  3.1937635658269292e-01  3.1743708243828517e-01  3.1539631806398566e-01  3.1330434438890087e-01  3.1121268359522297e-01  3.0917282978128813e-01  3.0723498160876955e-01  3.0544680814878422e-01  3.0385227834955369e-01  3.0249058298610620e-01  3.0139517563410467e-01  3.0059295615366455e-01  3.0010361639741162e-01  2.9993916341098248e-01  3.2668158185037310e-01  3.2651686484950670e-01  3.2602677419039622e-01  3.2522339529912320e-01  3.2412653772436184e-01  3.2276324427033942e-01  3.2116712147445720e-01  3.1937750835162293e-01  3.1743850423321746e-01  3.1539787991185392e-01  3.1330589909742690e-01  3.1121407933155182e-01  3.0917392294247203e-01  3.0723564931189662e-01  3.0544695964768270e-01  3.0385186460917368e-01  3.0248960353173371e-01  3.0139368167897801e-01  3.0059104897040645e-01  3.0010144006504069e-01  2.9993689162978004e-01  3.2668143620289025e-01  3.2651674605897724e-01  3.2602673528755066e-01  3.2522347931054102e-01  3.2412677220408431e-01  3.2276363775059597e-01  3.2116766209642023e-01  3.1937816465493751e-01  3.1743922787909812e-01  3.1539860998434077e-01  3.1330656755361841e-01  3.1121461713527326e-01  3.0917426640153278e-01  3.0723574613705662e-01  3.0544677425792444e-01  3.0385138222516467e-01  3.0248883263579007e-01  3.0139265448946356e-01  3.0058981969960208e-01  3.0010008092020685e-01  2.9993548678559701e-01  3.2668173541639411e-01  3.2651705237753403e-01  3.2602706255977748e-01  3.2522383755001244e-01  3.2412716543592784e-01  3.2276406257185541e-01  3.2116810710422333e-01  3.1937861079279534e-01  3.1743964965587779e-01  3.1539897744071066e-01  3.1330684879011567e-01  3.1121478117458889e-01  3.0917428613385423e-01  3.0723560108999609e-01  3.0544645294102823e-01  3.0385088382349290e-01  3.0248816786862837e-01  3.0139184551009662e-01  3.0058889899055097e-01  3.0009908923314693e-01  2.9993447027953141e-01  3.2668222512229900e-01  3.2651754084448981e-01  3.2602754703785319e-01  3.2522431394150342e-01  3.2412762755483471e-01  3.2276450168710663e-01  3.2116851183633405e-01  3.1937896739334176e-01  3.1743994265763564e-01  3.1539919062785654e-01  3.1330696640566635e-01  3.1121478925831053e-01  3.0917417386940604e-01  3.0723536203566043e-01  3.0544608602416523e-01  3.0385039399464747e-01  3.0248756633641183e-01  3.0139114951143953e-01  3.0058813109076804e-01  3.0009827619356350e-01  2.9993364157314961e-01  3.2668279632332436e-01  3.2651810730546194e-01  3.2602809911775177e-01  3.2522484167490545e-01  3.2412812050403206e-01  3.2276494891155183e-01  3.2116890200838344e-01  3.1937928907195262e-01  3.1744018471301244e-01  3.1539934279199966e-01  3.1330701990811016e-01  3.1121473749444822e-01  3.0917401304169245e-01  3.0723509170626140e-01  3.0544570952147188e-01  3.0384991862529320e-01  3.0248700336841722e-01  3.0139051391186389e-01  3.0058744102138907e-01  3.0009755228890411e-01  2.9993290604465273e-01  3.2668341058252548e-01  3.2651871539961758e-01  3.2602868870897872e-01  3.2522540047812926e-01  3.2412863636071931e-01  3.2276540992226799e-01  3.2116929673727129e-01  3.1937960682666355e-01  3.1744041589320476e-01  3.1539947928936696e-01  3.1330705553206911e-01  3.1121466839101791e-01  3.0917383806941967e-01  3.0723481273271080e-01  3.0544533160693105e-01  3.0384945006676345e-01  3.0248645558619930e-01  3.0138990117237274e-01  3.0058678000228245e-01  3.0009686150509318e-01  2.9993220516511376e-01  3.2668406087374696e-01  3.2651935915279334e-01  3.2602931296710319e-01  3.2522599234929406e-01  3.2412918310777139e-01  3.2276589911252662e-01  3.2116971646442455e-01  3.1937994600725267e-01  3.1744066462966536e-01  3.1539962928153237e-01  3.1330710051040056e-01  3.1121460453849642e-01  3.0917366439567445e-01  3.0723453136396778e-01  3.0544494795883687e-01  3.0384897287387358e-01  3.0248589677141574e-01  3.0138927555111705e-01  3.0058610482871900e-01  3.0009615588015492e-01  2.9993148933726982e-01  3.2668474412245935e-01  3.2652003658615503e-01  3.2602997302513342e-01  3.2522662317160933e-01  3.2412977243674645e-01  3.2276643431895896e-01  3.2117018472113845e-01  3.1938033461829957e-01  3.1744096150409268e-01  3.1539982352302909e-01  3.1330718307915822e-01  3.1121456893065408e-01  3.0917350727967791e-01  3.0723425311257885e-01  3.0544455302050438e-01  3.0384846993744613e-01  3.0248529869305979e-01  3.0138859903072274e-01  3.0058536984355561e-01  3.0009538490427345e-01  2.9993070639411562e-01  3.2668543253582100e-01  3.2652072215122058e-01  3.2603064960467715e-01  3.2522728326933859e-01  3.2413040655458941e-01  3.2276703061214351e-01  3.2117072901222671e-01  3.1938081079036806e-01  3.1744135225213593e-01  3.1540011140541518e-01  3.1330735178042129e-01  3.1121460462491035e-01  3.0917339997153614e-01  3.0723399783009209e-01  3.0544415074257786e-01  3.0384792815594147e-01  3.0248463153694655e-01  3.0138782691475391e-01  3.0058451864495772e-01  3.0009448471464023e-01  2.9992978993573233e-01  3.2668603094719578e-01  3.2652132595053107e-01  3.2603126755491196e-01  3.2522792014147445e-01  3.2413106114852147e-01  3.2276769452332582e-01  3.2117138627735464e-01  3.1938143844277711e-01  3.1744192172497537e-01  3.1540059064484954e-01  3.1330770787431167e-01  3.1121480671424162e-01  3.0917342219096589e-01  3.0723382201924110e-01  3.0544376868069811e-01  3.0384734309993944e-01  3.0248385888766577e-01  3.0138689390013423e-01  3.0058346299112254e-01  3.0009335237401030e-01  2.9992863204676812e-01  3.2668629652037207e-01  3.2652161755152775e-01  3.2603163118123224e-01  3.2522839124747333e-01  3.2413165951664991e-01  3.2276842110951381e-01  3.2117222223799335e-01  3.1938234628363599e-01  3.1744284832371145e-01  3.1540147178029199e-01  3.1330847382925014e-01  3.1121538848559960e-01  3.0917375782780787e-01  3.0723386260656682e-01  3.0544348349296868e-01  3.0384672346638525e-01  3.0248292035130286e-01  3.0138567632934082e-01  3.0058202843554521e-01  3.0009178066278608e-01  2.9992701441102210e-01  3.2668566426279649e-01  3.2652106200829661e-01  3.2603128908225243e-01  3.2522837103438590e-01  3.2413202902177018e-01  3.2276920112216889e-01  3.2117338562931647e-01  3.1938382180083946e-01  3.1744452800023693e-01  3.1540322094910050e-01  3.1331014284352882e-01  3.1121682536903639e-01  3.0917482115663392e-01  3.0723443395073985e-01  3.0544347870980643e-01  3.0384610205237533e-01  3.0248169193628049e-01  3.0138390328529996e-01  3.0057982355346208e-01  3.0008929906524207e-01  2.9992443951461562e-01  3.2668282375033780e-01  3.2651843009635945e-01  3.2602923065742612e-01  3.2522716335576080e-01  3.2413183672546431e-01  3.2277007095797511e-01  3.2117525431355187e-01  3.1938653163421077e-01  3.1744784663327091e-01  3.1540686312284116e-01  3.1331379293894518e-01  3.1122016021775484e-01  3.0917753288873406e-01  3.0723625274825822e-01  3.0544419521800364e-01  3.0384558884616059e-01  3.0247992277408581e-01  3.0138096781496954e-01  3.0057593362462143e-01  3.0008478105250258e-01  2.9991970596734441e-01  3.2667451624766375e-01  3.2651076093854436e-01  3.2602319423635595e-01  3.2522338796848405e-01  3.2413060137350691e-01  3.2277136615013829e-01  3.2117884851170003e-01  3.1939203006612760e-01  3.1745473984700623e-01  3.1541456667489370e-01  3.1332168077797357e-01  3.1122759443214443e-01  3.0918389233942339e-01  3.0724096304234910e-01  3.0544676257925829e-01  3.0384564060194635e-01  3.0247725703705181e-01  3.0137561361205256e-01  3.0056821828004343e-01  3.0007538997068106e-01  2.9990969265449630e-01  3.2665067346604237e-01  3.2649015206408122e-01  3.2600840799868191e-01  3.2521511070579595e-01  3.2412858277916273e-01  3.2277490612263376e-01  3.2118703687333461e-01  3.1940386120463854e-01  3.1746916575244355e-01  3.1543052076634287e-01  3.1333808861570528e-01  3.1124337909586658e-01  3.0919797838943491e-01  3.0725228189812798e-01  3.0545426337944104e-01  3.0384831469327456e-01  3.0247419295040218e-01  3.0136611643121963e-01  3.0055205981075261e-01  3.0005331739707225e-01  2.9988443816330801e-01  3.2655476373621406e-01  3.2643602869772431e-01  3.2598141687988941e-01  3.2520646648772600e-01  3.2413283642946178e-01  3.2278850025788053e-01  3.2120748023131201e-01  3.1942925682578527e-01  3.1749794160974482e-01  3.1546127569239824e-01  3.1336950213629572e-01  3.1127415319400287e-01  3.0922678875441478e-01  3.0727771901059264e-01  3.0547474076567266e-01  3.0386191185465139e-01  3.0247838058545579e-01  3.0135727499342280e-01  3.0052463690064796e-01  2.9999835276370884e-01  2.9978697729600512e-01  </DataArray> 
</PointData> 
</Piece>
</UnstructuredGrid>
</VTKFile>