<?xml version="1.0"?>
<VTKFile type="UnstructuredGrid"  version="0.1"  >
<UnstructuredGrid>
<Piece  NumberOfPoints="441" NumberOfCells="800">
<Points>
<DataArray  type="Float64"  NumberOfComponents="3"  format="ascii">-2 -2 0  -1.8 -2 0  -1.6 -2 0  -1.4 -2 0  -1.2 -2 0  -1 -2 0  -0.8 -2 0  -0.6000000000000001 -2 0  -0.3999999999999999 -2 0  -0.2 -2 0  0 -2 0  0.2000000000000002 -2 0  0.3999999999999999 -2 0  0.6000000000000001 -2 0  0.7999999999999998 -2 0  1 -2 0  1.2 -2 0  1.4 -2 0  1.6 -2 0  1.8 -2 0  2 -2 0  -2 -1.8 0  -1.8 -1.8 0  -1.6 -1.8 0  -1.4 -1.8 0  -1.2 -1.8 0  -1 -1.8 0  -0.8 -1.8 0  -0.6000000000000001 -1.8 0  -0.3999999999999999 -1.8 0  -0.2 -1.8 0  0 -1.8 0  0.2000000000000002 -1.8 0  0.3999999999999999 -1.8 0  0.6000000000000001 -1.8 0  0.7999999999999998 -1.8 0  1 -1.8 0  1.2 -1.8 0  1.4 -1.8 0  1.6 -1.8 0  1.8 -1.8 0  2 -1.8 0  -2 -1.6 0  -1.8 -1.6 0  -1.6 -1.6 0  -1.4 -1.6 0  -1.2 -1.6 0  -1 -1.6 0  -0.8 -1.6 0  -0.6000000000000001 -1.6 0  -0.3999999999999999 -1.6 0  -0.2 -1.6 0  0 -1.6 0  0.2000000000000002 -1.6 0  0.3999999999999999 -1.6 0  0.6000000000000001 -1.6 0  0.7999999999999998 -1.6 0  1 -1.6 0  1.2 -1.6 0  1.4 -1.6 0  1.6 -1.6 0  1.8 -1.6 0  2 -1.6 0  -2 -1.4 0  -1.8 -1.4 0  -1.6 -1.4 0  -1.4 -1.4 0  -1.2 -1.4 0  -1 -1.4 0  -0.8 -1.4 0  -0.6000000000000001 -1.4 0  -0.3999999999999999 -1.4 0  -0.2 -1.4 0  0 -1.4 0  0.2000000000000002 -1.4 0  0.3999999999999999 -1.4 0  0.6000000000000001 -1.4 0  0.7999999999999998 -1.4 0  1 -1.4 0  1.2 -1.4 0  1.4 -1.4 0  1.6 -1.4 0  1.8 -1.4 0  2 -1.4 0  -2 -1.2 0  -1.8 -1.2 0  -1.6 -1.2 0  -1.4 -1.2 0  -1.2 -1.2 0  -1 -1.2 0  -0.8 -1.2 0  -0.6000000000000001 -1.2 0  -0.3999999999999999 -1.2 0  -0.2 -1.2 0  0 -1.2 0  0.2000000000000002 -1.2 0  0.3999999999999999 -1.2 0  0.6000000000000001 -1.2 0  0.7999999999999998 -1.2 0  1 -1.2 0  1.2 -1.2 0  1.4 -1.2 0  1.6 -1.2 0  1.8 -1.2 0  2 -1.2 0  -2 -1 0  -1.8 -1 0  -1.6 -1 0  -1.4 -1 0  -1.2 -1 0  -1 -1 0  -0.8 -1 0  -0.6000000000000001 -1 0  -0.3999999999999999 -1 0  -0.2 -1 0  0 -1 0  0.2000000000000002 -1 0  0.3999999999999999 -1 0  0.6000000000000001 -1 0  0.7999999999999998 -1 0  1 -1 0  1.2 -1 0  1.4 -1 0  1.6 -1 0  1.8 -1 0  2 -1 0  -2 -0.8 0  -1.8 -0.8 0  -1.6 -0.8 0  -1.4 -0.8 0  -1.2 -0.8 0  -1 -0.8 0  -0.8 -0.8 0  -0.6000000000000001 -0.8 0  -0.3999999999999999 -0.8 0  -0.2 -0.8 0  0 -0.8 0  0.2000000000000002 -0.8 0  0.3999999999999999 -0.8 0  0.6000000000000001 -0.8 0  0.7999999999999998 -0.8 0  1 -0.8 0  1.2 -0.8 0  1.4 -0.8 0  1.6 -0.8 0  1.8 -0.8 0  2 -0.8 0  -2 -0.6000000000000001 0  -1.8 -0.6000000000000001 0  -1.6 -0.6000000000000001 0  -1.4 -0.6000000000000001 0  -1.2 -0.6000000000000001 0  -1 -0.6000000000000001 0  -0.8 -0.6000000000000001 0  -0.6000000000000001 -0.6000000000000001 0  -0.3999999999999999 -0.6000000000000001 0  -0.2 -0.6000000000000001 0  0 -0.6000000000000001 0  0.2000000000000002 -0.6000000000000001 0  0.3999999999999999 -0.6000000000000001 0  0.6000000000000001 -0.6000000000000001 0  0.7999999999999998 -0.6000000000000001 0  1 -0.6000000000000001 0  1.2 -0.6000000000000001 0  1.4 -0.6000000000000001 0  1.6 -0.6000000000000001 0  1.8 -0.6000000000000001 0  2 -0.6000000000000001 0  -2 -0.3999999999999999 0  -1.8 -0.3999999999999999 0  -1.6 -0.3999999999999999 0  -1.4 -0.3999999999999999 0  -1.2 -0.3999999999999999 0  -1 -0.3999999999999999 0  -0.8 -0.3999999999999999 0  -0.6000000000000001 -0.3999999999999999 0  -0.3999999999999999 -0.3999999999999999 0  -0.2 -0.3999999999999999 0  0 -0.3999999999999999 0  0.2000000000000002 -0.3999999999999999 0  0.3999999999999999 -0.3999999999999999 0  0.6000000000000001 -0.3999999999999999 0  0.7999999999999998 -0.3999999999999999 0  1 -0.3999999999999999 0  1.2 -0.3999999999999999 0  1.4 -0.3999999999999999 0  1.6 -0.3999999999999999 0  1.8 -0.3999999999999999 0  2 -0.3999999999999999 0  -2 -0.2 0  -1.8 -0.2 0  -1.6 -0.2 0  -1.4 -0.2 0  -1.2 -0.2 0  -1 -0.2 0  -0.8 -0.2 0  -0.6000000000000001 -0.2 0  -0.3999999999999999 -0.2 0  -0.2 -0.2 0  0 -0.2 0  0.2000000000000002 -0.2 0  0.3999999999999999 -0.2 0  0.6000000000000001 -0.2 0  0.7999999999999998 -0.2 0  1 -0.2 0  1.2 -0.2 0  1.4 -0.2 0  1.6 -0.2 0  1.8 -0.2 0  2 -0.2 0  -2 0 0  -1.8 0 0  -1.6 0 0  -1.4 0 0  -1.2 0 0  -1 0 0  -0.8 0 0  -0.6000000000000001 0 0  -0.3999999999999999 0 0  -0.2 0 0  0 0 0  0.2000000000000002 0 0  0.3999999999999999 0 0  0.6000000000000001 0 0  0.7999999999999998 0 0  1 0 0  1.2 0 0  1.4 0 0  1.6 0 0  1.8 0 0  2 0 0  -2 0.2000000000000002 0  -1.8 0.2000000000000002 0  -1.6 0.2000000000000002 0  -1.4 0.2000000000000002 0  -1.2 0.2000000000000002 0  -1 0.2000000000000002 0  -0.8 0.2000000000000002 0  -0.6000000000000001 0.2000000000000002 0  -0.3999999999999999 0.2000000000000002 0  -0.2 0.2000000000000002 0  0 0.2000000000000002 0  0.2000000000000002 0.2000000000000002 0  0.3999999999999999 0.2000000000000002 0  0.6000000000000001 0.2000000000000002 0  0.7999999999999998 0.2000000000000002 0  1 0.2000000000000002 0  1.2 0.2000000000000002 0  1.4 0.2000000000000002 0  1.6 0.2000000000000002 0  1.8 0.2000000000000002 0  2 0.2000000000000002 0  -2 0.3999999999999999 0  -1.8 0.3999999999999999 0  -1.6 0.3999999999999999 0  -1.4 0.3999999999999999 0  -1.2 0.3999999999999999 0  -1 0.3999999999999999 0  -0.8 0.3999999999999999 0  -0.6000000000000001 0.3999999999999999 0  -0.3999999999999999 0.3999999999999999 0  -0.2 0.3999999999999999 0  0 0.3999999999999999 0  0.2000000000000002 0.3999999999999999 0  0.3999999999999999 0.3999999999999999 0  0.6000000000000001 0.3999999999999999 0  0.7999999999999998 0.3999999999999999 0  1 0.3999999999999999 0  1.2 0.3999999999999999 0  1.4 0.3999999999999999 0  1.6 0.3999999999999999 0  1.8 0.3999999999999999 0  2 0.3999999999999999 0  -2 0.6000000000000001 0  -1.8 0.6000000000000001 0  -1.6 0.6000000000000001 0  -1.4 0.6000000000000001 0  -1.2 0.6000000000000001 0  -1 0.6000000000000001 0  -0.8 0.6000000000000001 0  -0.6000000000000001 0.6000000000000001 0  -0.3999999999999999 0.6000000000000001 0  -0.2 0.6000000000000001 0  0 0.6000000000000001 0  0.2000000000000002 0.6000000000000001 0  0.3999999999999999 0.6000000000000001 0  0.6000000000000001 0.6000000000000001 0  0.7999999999999998 0.6000000000000001 0  1 0.6000000000000001 0  1.2 0.6000000000000001 0  1.4 0.6000000000000001 0  1.6 0.6000000000000001 0  1.8 0.6000000000000001 0  2 0.6000000000000001 0  -2 0.7999999999999998 0  -1.8 0.7999999999999998 0  -1.6 0.7999999999999998 0  -1.4 0.7999999999999998 0  -1.2 0.7999999999999998 0  -1 0.7999999999999998 0  -0.8 0.7999999999999998 0  -0.6000000000000001 0.7999999999999998 0  -0.3999999999999999 0.7999999999999998 0  -0.2 0.7999999999999998 0  0 0.7999999999999998 0  0.2000000000000002 0.7999999999999998 0  0.3999999999999999 0.7999999999999998 0  0.6000000000000001 0.7999999999999998 0  0.7999999999999998 0.7999999999999998 0  1 0.7999999999999998 0  1.2 0.7999999999999998 0  1.4 0.7999999999999998 0  1.6 0.7999999999999998 0  1.8 0.7999999999999998 0  2 0.7999999999999998 0  -2 1 0  -1.8 1 0  -1.6 1 0  -1.4 1 0  -1.2 1 0  -1 1 0  -0.8 1 0  -0.6000000000000001 1 0  -0.3999999999999999 1 0  -0.2 1 0  0 1 0  0.2000000000000002 1 0  0.3999999999999999 1 0  0.6000000000000001 1 0  0.7999999999999998 1 0  1 1 0  1.2 1 0  1.4 1 0  1.6 1 0  1.8 1 0  2 1 0  -2 1.2 0  -1.8 1.2 0  -1.6 1.2 0  -1.4 1.2 0  -1.2 1.2 0  -1 1.2 0  -0.8 1.2 0  -0.6000000000000001 1.2 0  -0.3999999999999999 1.2 0  -0.2 1.2 0  0 1.2 0  0.2000000000000002 1.2 0  0.3999999999999999 1.2 0  0.6000000000000001 1.2 0  0.7999999999999998 1.2 0  1 1.2 0  1.2 1.2 0  1.4 1.2 0  1.6 1.2 0  1.8 1.2 0  2 1.2 0  -2 1.4 0  -1.8 1.4 0  -1.6 1.4 0  -1.4 1.4 0  -1.2 1.4 0  -1 1.4 0  -0.8 1.4 0  -0.6000000000000001 1.4 0  -0.3999999999999999 1.4 0  -0.2 1.4 0  0 1.4 0  0.2000000000000002 1.4 0  0.3999999999999999 1.4 0  0.6000000000000001 1.4 0  0.7999999999999998 1.4 0  1 1.4 0  1.2 1.4 0  1.4 1.4 0  1.6 1.4 0  1.8 1.4 0  2 1.4 0  -2 1.6 0  -1.8 1.6 0  -1.6 1.6 0  -1.4 1.6 0  -1.2 1.6 0  -1 1.6 0  -0.8 1.6 0  -0.6000000000000001 1.6 0  -0.3999999999999999 1.6 0  -0.2 1.6 0  0 1.6 0  0.2000000000000002 1.6 0  0.3999999999999999 1.6 0  0.6000000000000001 1.6 0  0.7999999999999998 1.6 0  1 1.6 0  1.2 1.6 0  1.4 1.6 0  1.6 1.6 0  1.8 1.6 0  2 1.6 0  -2 1.8 0  -1.8 1.8 0  -1.6 1.8 0  -1.4 1.8 0  -1.2 1.8 0  -1 1.8 0  -0.8 1.8 0  -0.6000000000000001 1.8 0  -0.3999999999999999 1.8 0  -0.2 1.8 0  0 1.8 0  0.2000000000000002 1.8 0  0.3999999999999999 1.8 0  0.6000000000000001 1.8 0  0.7999999999999998 1.8 0  1 1.8 0  1.2 1.8 0  1.4 1.8 0  1.6 1.8 0  1.8 1.8 0  2 1.8 0  -2 2 0  -1.8 2 0  -1.6 2 0  -1.4 2 0  -1.2 2 0  -1 2 0  -0.8 2 0  -0.6000000000000001 2 0  -0.3999999999999999 2 0  -0.2 2 0  0 2 0  0.2000000000000002 2 0  0.3999999999999999 2 0  0.6000000000000001 2 0  0.7999999999999998 2 0  1 2 0  1.2 2 0  1.4 2 0  1.6 2 0  1.8 2 0  2 2 0  </DataArray>
</Points>
<Cells>
[...]
<PointData  Scalars="f_8"> 
<DataArray  type="Float64"  Name="f_8"  format="ascii">6.9952679890956784e-02  6.9110578754328883e-02  6.7040316388954704e-02  6.3842445211163210e-02  5.9681386908833706e-02  5.4767537226261334e-02  4.9337474545462216e-02  4.3634068627678962e-02  3.7888364136866914e-02  3.2304830512628377e-02  2.7051048180346714e-02  2.2252273456371902e-02  1.7990714389345758e-02  1.4308853899529113e-02  1.1215833099473917e-02  8.6957732739870071e-03  6.7169505223285131e-03  5.2408996251414172e-03  4.2307619241877155e-03  3.6584615438582787e-03  3.5105715547448704e-03  6.9613098995254363e-02  6.8944516338105666e-02  6.6991493586684575e-02  6.3872739426635544e-02  5.9762736297848708e-02  5.4877928604778130e-02  4.9459192123906461e-02  4.3753092261278610e-02  3.7994238616521916e-02  3.2390607532074914e-02  2.7113093182811521e-02  2.2289860135596005e-02  1.8005413304417430e-02  1.4303764942115233e-02  1.1194719118872230e-02  8.6621282613211590e-03  6.6729829773098321e-03  5.1863278533163127e-03  4.1611908055282937e-03  3.5629094137399732e-03  3.3673793858275546e-03  6.9568319671946294e-02  6.8912522288777978e-02  6.6983127290951391e-02  6.3889090051410830e-02  5.9799579705256227e-02  5.4928458180133491e-02  4.9515816127910971e-02  4.3808657065947179e-02  3.8042831647219923e-02  3.2428006853819351e-02  2.7136907185647957e-02  2.2299406449280711e-02  1.8001399885814107e-02  1.4287846586137010e-02  1.1169005020863525e-02  8.6287119772527603e-03  6.6335610142949104e-03  5.1419770712359623e-03  4.1124026285066541e-03  3.5100535487481120e-03  3.3119301147000271e-03  6.9576661240177404e-02  6.8922654215687135e-02  6.6997717605903909e-02  6.3909044296972875e-02  5.9824115743925113e-02  5.4955568017690609e-02  4.9542853218188555e-02  4.3832900858261567e-02  3.8061943314858335e-02  3.2440331387584911e-02  2.7141609238111528e-02  2.2296453385716973e-02  1.7991424802265621e-02  1.4271935483527247e-02  1.1148455777248012e-02  8.6048095038348312e-03  6.6074051987888146e-03  5.1143899063175050e-03  4.0839288612206856e-03  3.4810522331637905e-03  3.2827226404921494e-03  6.9591678607092533e-02  6.8937879446530459e-02  6.7013344917407777e-02  6.3924952182839889e-02  5.9839813992072867e-02  5.4970269886380027e-02  4.9555626209425982e-02  4.3842844191007452e-02  3.8068347551787014e-02  3.2442789277664925e-02  2.7140062671881734e-02  2.2291176379708830e-02  1.7982954353207233e-02  1.4260969593425120e-02  1.1135740602669676e-02  8.5910360060172681e-03  6.5931310512901565e-03  5.0999961087751346e-03  4.0696136305958044e-03  3.4668579927817876e-03  3.2685858453408959e-03  6.9601857924542918e-02  6.8947991926459201e-02  6.7023158796609972e-02  6.3934190390335072e-02  5.9848152245333165e-02  5.4977360976276729e-02  4.9561143381418461e-02  4.3846531061384399e-02  3.8070061212804263e-02  3.2442526114743853e-02  2.7137961416531062e-02  2.2287498456453121e-02  1.7978046295041149e-02  1.4255215311936851e-02  1.1129512280179006e-02  8.5846515180169405e-03  6.5868236775598653e-03  5.0938995472876135e-03  4.0637626347173978e-03  3.4612027762499320e-03  3.2630170046655323e-03  6.9606706489376793e-02  6.8952768293380970e-02  6.7027690598754575e-02  6.3938307743158534e-02  5.9851695571178247e-02  5.4980192604111681e-02  4.9563161180611617e-02  4.3847681052835895e-02  3.8070345866028830e-02  3.2442005852442793e-02  2.7136748359704411e-02  2.2285743156610846e-02  1.7975919637990018e-02  1.4252888608678122e-02  1.1127138663956022e-02  8.5823512279920387e-03  6.5846748607867401e-03  5.0919351407052553e-03  4.0619729562967359e-03  3.4595428244639497e-03  3.2614171850691757e-03  6.9608440093418086e-02  6.8954463026427368e-02  6.7029272382987448e-02  6.3939708138858978e-02  5.9852856494700818e-02  5.4981070939966896e-02  4.9563732690332332e-02  4.3847942834228000e-02  3.8070316701942067e-02  3.2441724105718252e-02  2.7136267531202400e-02  2.2285125689996379e-02  1.7975229895221687e-02  1.4252186066611966e-02  1.1126472276179022e-02  8.5817556047284409e-03  6.5841685362298032e-03  5.0915208267794925e-03  4.0616394109867530e-03  3.4592678370090886e-03  3.2611711970204110e-03  6.9608893053879711e-02  6.8954900291486848e-02  6.7029671755340275e-02  6.3940050183829616e-02  5.9853126198371513e-02  5.4981259040408584e-02  4.9563836498531987e-02  4.3847966389656899e-02  3.8070270184088671e-02  3.2441622538073270e-02  2.7136128941335286e-02  2.2284968993567175e-02  1.7975072822556420e-02  1.4252043432509517e-02  1.1126354811694161e-02  8.5816694466059884e-03  6.5841153385191647e-03  5.0914983529144631e-03  4.0616424068040894e-03  3.4592889842424146e-03  3.2612019952785671e-03  6.9608968828838907e-02  6.8954971087340264e-02  6.7029733118853185e-02  6.3940098563837977e-02  5.9853159320680201e-02  5.4981276145941914e-02  4.9563838404962264e-02  4.3847955358205931e-02  3.8070249602455732e-02  3.2441596462515085e-02  2.7136101568294189e-02  2.2284944146207283e-02  1.7975053535001645e-02  1.4252031693970827e-02  1.1126351498589638e-02  8.5816744315662385e-03  6.5841277304624140e-03  5.0915168002838495e-03  4.0616653910462031e-03  3.4593150426073045e-03  3.2612298369148708e-03  6.9608970755539026e-02  6.8954971913688101e-02  6.7029732490226507e-02  6.3940096314669417e-02  5.9853155516498675e-02  5.4981271091281515e-02  4.9563832612618604e-02  4.3847949482139631e-02  3.8070244343934571e-02  3.2441592465257157e-02  2.7136099321761826e-02  2.2284943915611522e-02  1.7975055331761983e-02  1.4252035292239807e-02  1.1126356493866747e-02  8.5816803286994908e-03  6.5841340425359359e-03  5.0915231382566125e-03  4.0616715266697800e-03  3.4593209332060330e-03  3.2612356085000046e-03  6.9608961718248888e-02  6.8954963210236725e-02  6.7029724177545033e-02  6.3940088437783441e-02  5.9853148139365084e-02  5.4981264312830909e-02  4.9563826565014887e-02  4.3847944312825467e-02  3.8070240187060810e-02  3.2441589410642430e-02  2.7136097389953512e-02  2.2284943045811696e-02  1.7975055385837189e-02  1.4252036073730054e-02  1.1126357777026570e-02  8.5816818901776511e-03  6.5841356879300528e-03  5.0915247174806383e-03  4.0616729353086236e-03  3.4593221008947348e-03  3.2612364788408310e-03  6.9608964799210166e-02  6.8954967187606589e-02  6.7029726653922928e-02  6.3940087290289438e-02  5.9853141798505462e-02  5.4981251943824527e-02  4.9563808132589378e-02  4.3847920529012437e-02  3.8070212359937690e-02  3.2441559226675798e-02  2.7136066670385532e-02  2.2284913516779956e-02  1.7975028493254351e-02  1.4252012860092140e-02  1.1126338822216735e-02  8.5816673059517443e-03  6.5841251489586619e-03  5.0915175116021715e-03  4.0616680210847668e-03  3.4593181691749482e-03  3.2612320235914571e-03  6.9609155079580945e-02  6.8955153731104543e-02  6.7029892796920412e-02  6.3940218610182772e-02  5.9853227418359821e-02  5.4981285428769032e-02  4.9563787882631091e-02  4.3847849627318622e-02  3.8070097907388606e-02  3.2441411267775180e-02  2.7135896873634414e-02  2.2284733799276590e-02  1.7974849768771797e-02  1.4251844047290494e-02  1.1126186188552219e-02  8.5815341603392974e-03  6.5840118473902056e-03  5.0914217135245680e-03  4.0615851311574481e-03  3.4592419126177822e-03  3.2611551229607600e-03  6.9610275410093889e-02  6.8956244308843700e-02  6.7030887615606508e-02  6.3941059575381876e-02  5.9853868472949955e-02  5.4981695898353784e-02  4.9563954603397971e-02  4.3847777452180964e-02  3.8069808379083060e-02  3.2440939543421150e-02  2.7135287291277992e-02  2.2284034703571376e-02  1.7974108304058354e-02  1.4251101572284966e-02  1.1125474799965665e-02  8.5808745902974382e-03  6.5834127820573437e-03  5.0908804129892573e-03  4.0610891327347012e-03  3.4587715645755701e-03  3.2606866990286766e-03  6.9614256126576193e-02  6.8960125952913953e-02  6.7034495053809720e-02  6.3944230730733354e-02  5.9856462898964076e-02  5.4983604908533608e-02  4.9565111025932064e-02  4.3848162539004643e-02  3.8069453787570068e-02  3.2439923364179640e-02  2.7133724404561202e-02  2.2282062908329060e-02  1.7971872398009292e-02  1.4248737759662535e-02  1.1123097517869678e-02  8.5785672358375600e-03  6.5812230896997786e-03  5.0888205464435293e-03  4.0591400215322015e-03  3.4568906587656512e-03  3.2588181090390106e-03  6.9624142033577779e-02  6.8969833939648201e-02  6.7043742893163366e-02  6.3952712514731197e-02  5.9863856260437477e-02  5.4989598970895844e-02  4.9569445817567892e-02  4.3850667889568873e-02  3.8070077073513335e-02  3.2438739377491407e-02  2.7130925480631160e-02  2.2277931909666981e-02  1.7966744299534342e-02  1.4242957028234988e-02  1.1116978307554778e-02  8.5723620461532549e-03  6.5751035115467924e-03  5.0828715600071996e-03  4.0533673536695888e-03  3.4512390982511291e-03  3.2531974469783131e-03  6.9641056849324506e-02  6.8986771085734852e-02  6.7060738389060515e-02  6.3969504138304781e-02  5.9879870358203968e-02  5.5004045684913377e-02  4.9581471725788306e-02  4.3859516743392717e-02  3.8075220554347269e-02  3.2439954888735176e-02  2.7128313322986035e-02  2.2271877222653520e-02  1.7957838292757079e-02  1.4231896655585470e-02  1.1104463965565269e-02  8.5590100983388689e-03  6.5613857465633427e-03  5.0690882441218298e-03  4.0396550147583617e-03  3.4376086296990672e-03  3.2395922172569823e-03  6.9654654315472395e-02  6.9002120678501699e-02  6.7080137027384801e-02  6.3993488656340650e-02  5.9907404694886972e-02  5.5033023272144641e-02  4.9609299790420620e-02  4.3883651114650445e-02  3.8093577300389994e-02  3.2451164336936025e-02  2.7131812398937045e-02  2.2267859676584387e-02  1.7947098679116816e-02  1.4215612256801912e-02  1.1083959693130372e-02  8.5355465213723686e-03  6.5360022786221106e-03  5.0425244017618829e-03  4.0123631937844873e-03  3.4098591917207186e-03  3.2116464273997305e-03  6.9616902168008046e-02  6.8977821646229953e-02  6.7079040809905344e-02  6.4016139516760745e-02  5.9949341589942758e-02  5.5087384153658665e-02  4.9668550345436706e-02  4.3940767955709802e-02  3.8142824409626394e-02  3.2488522563837524e-02  2.7155102618779521e-02  2.2276608099517439e-02  1.7942207516147196e-02  1.4198909263403212e-02  1.1057701839003529e-02  8.5019476192281229e-03  6.4968478075910861e-03  4.9989389616817417e-03  3.9648218185571399e-03  3.3586059529245493e-03  3.1578406839649423e-03  6.9281575794149064e-02  6.8813565063999091e-02  6.7031139061821426e-02  6.4047475967599105e-02  6.0032413095645096e-02  5.5200362779046108e-02  4.9793607480498277e-02  4.4063562490892556e-02  3.8252472909135915e-02  3.2577640750954436e-02  2.7219696094156951e-02  2.2315724001976268e-02  1.7957348769443507e-02  1.4193263300335707e-02  1.1035248959544353e-02  8.4664933925094783e-03  6.4509713888983274e-03  4.9427630938388995e-03  3.8943794260026207e-03  3.2633735540076782e-03  3.0166697285273964e-03  </DataArray> 
</PointData> 
</Piece>
</UnstructuredGrid>
</VTKFile>