<?xml version="1.0"?>
<VTKFile type="UnstructuredGrid"  version="0.1"  >
<UnstructuredGrid>
<Piece  NumberOfPoints="441" NumberOfCells="800">
<Points>
<DataArray  type="Float64"  NumberOfComponents="3"  format="ascii">-2 -2 0  -1.8 -2 0  -1.6 -2 0  -1.4 -2 0  -1.2 -2 0  -1 -2 0  -0.8 -2 0  -0.6000000000000001 -2 0  -0.3999999999999999 -2 0  -0.2 -2 0  0 -2 0  0.2000000000000002 -2 0  0.3999999999999999 -2 0  0.6000000000000001 -2 0  0.7999999999999998 -2 0  1 -2 0  1.2 -2 0  1.4 -2 0  1.6 -2 0  1.8 -2 0  2 -2 0  -2 -1.8 0  -1.8 -1.8 0  -1.6 -1.8 0  -1.4 -1.8 0  -1.2 -1.8 0  -1 -1.8 0  -0.8 -1.8 0  -0.6000000000000001 -1.8 0  -0.3999999999999999 -1.8 0  -0.2 -1.8 0  0 -1.8 0  0.2000000000000002 -1.8 0  0.3999999999999999 -1.8 0  0.6000000000000001 -1.8 0  0.7999999999999998 -1.8 0  1 -1.8 0  1.2 -1.8 0  1.4 -1.8 0  1.6 -1.8 0  1.8 -1.8 0  2 -1.8 0  -2 -1.6 0  -1.8 -1.6 0  -1.6 -1.6 0  -1.4 -1.6 0  -1.2 -1.6 0  -1 -1.6 0  -0.8 -1.6 0  -0.6000000000000001 -1.6 0  -0.3999999999999999 -1.6 0  -0.2 -1.6 0  0 -1.6 0  0.2000000000000002 -1.6 0  0.3999999999999999 -1.6 0  0.6000000000000001 -1.6 0  0.7999999999999998 -1.6 0  1 -1.6 0  1.2 -1.6 0  1.4 -1.6 0  1.6 -1.6 0  1.8 -1.6 0  2 -1.6 0  -2 -1.4 0  -1.8 -1.4 0  -1.6 -1.4 0  -1.4 -1.4 0  -1.2 -1.4 0  -1 -1.4 0  -0.8 -1.4 0  -0.6000000000000001 -1.4 0  -0.3999999999999999 -1.4 0  -0.2 -1.4 0  0 -1.4 0  0.2000000000000002 -1.4 0  0.3999999999999999 -1.4 0  0.6000000000000001 -1.4 0  0.7999999999999998 -1.4 0  1 -1.4 0  1.2 -1.4 0  1.4 -1.4 0  1.6 -1.4 0  1.8 -1.4 0  2 -1.4 0  -2 -1.2 0  -1.8 -1.2 0  -1.6 -1.2 0  -1.4 -1.2 0  -1.2 -1.2 0  -1 -1.2 0  -0.8 -1.2 0  -0.6000000000000001 -1.2 0  -0.3999999999999999 -1.2 0  -0.2 -1.2 0  0 -1.2 0  0.2000000000000002 -1.2 0  0.3999999999999999 -1.2 0  0.6000000000000001 -1.2 0  0.7999999999999998 -1.2 0  1 -1.2 0  1.2 -1.2 0  1.4 -1.2 0  1.6 -1.2 0  1.8 -1.2 0  2 -1.2 0  -2 -1 0  -1.8 -1 0  -1.6 -1 0  -1.4 -1 0  -1.2 -1 0  -1 -1 0  -0.8 -1 0  -0.6000000000000001 -1 0  -0.3999999999999999 -1 0  -0.2 -1 0  0 -1 0  0.2000000000000002 -1 0  0.3999999999999999 -1 0  0.6000000000000001 -1 0  0.7999999999999998 -1 0  1 -1 0  1.2 -1 0  1.4 -1 0  1.6 -1 0  1.8 -1 0  2 -1 0  -2 -0.8 0  -1.8 -0.8 0  -1.6 -0.8 0  -1.4 -0.8 0  -1.2 -0.8 0  -1 -0.8 0  -0.8 -0.8 0  -0.6000000000000001 -0.8 0  -0.3999999999999999 -0.8 0  -0.2 -0.8 0  0 -0.8 0  0.2000000000000002 -0.8 0  0.3999999999999999 -0.8 0  0.6000000000000001 -0.8 0  0.7999999999999998 -0.8 0  1 -0.8 0  1.2 -0.8 0  1.4 -0.8 0  1.6 -0.8 0  1.8 -0.8 0  2 -0.8 0  -2 -0.6000000000000001 0  -1.8 -0.6000000000000001 0  -1.6 -0.6000000000000001 0  -1.4 -0.6000000000000001 0  -1.2 -0.6000000000000001 0  -1 -0.6000000000000001 0  -0.8 -0.6000000000000001 0  -0.6000000000000001 -0.6000000000000001 0  -0.3999999999999999 -0.6000000000000001 0  -0.2 -0.6000000000000001 0  0 -0.6000000000000001 0  0.2000000000000002 -0.6000000000000001 0  0.3999999999999999 -0.6000000000000001 0  0.6000000000000001 -0.6000000000000001 0  0.7999999999999998 -0.6000000000000001 0  1 -0.6000000000000001 0  1.2 -0.6000000000000001 0  1.4 -0.6000000000000001 0  1.6 -0.6000000000000001 0  1.8 -0.6000000000000001 0  2 -0.6000000000000001 0  -2 -0.3999999999999999 0  -1.8 -0.3999999999999999 0  -1.6 -0.3999999999999999 0  -1.4 -0.3999999999999999 0  -1.2 -0.3999999999999999 0  -1 -0.3999999999999999 0  -0.8 -0.3999999999999999 0  -0.6000000000000001 -0.3999999999999999 0  -0.3999999999999999 -0.3999999999999999 0  -0.2 -0.3999999999999999 0  0 -0.3999999999999999 0  0.2000000000000002 -0.3999999999999999 0  0.3999999999999999 -0.3999999999999999 0  0.6000000000000001 -0.3999999999999999 0  0.7999999999999998 -0.3999999999999999 0  1 -0.3999999999999999 0  1.2 -0.3999999999999999 0  1.4 -0.3999999999999999 0  1.6 -0.3999999999999999 0  1.8 -0.3999999999999999 0  2 -0.3999999999999999 0  -2 -0.2 0  -1.8 -0.2 0  -1.6 -0.2 0  -1.4 -0.2 0  -1.2 -0.2 0  -1 -0.2 0  -0.8 -0.2 0  -0.6000000000000001 -0.2 0  -0.3999999999999999 -0.2 0  -0.2 -0.2 0  0 -0.2 0  0.2000000000000002 -0.2 0  0.3999999999999999 -0.2 0  0.6000000000000001 -0.2 0  0.7999999999999998 -0.2 0  1 -0.2 0  1.2 -0.2 0  1.4 -0.2 0  1.6 -0.2 0  1.8 -0.2 0  2 -0.2 0  -2 0 0  -1.8 0 0  -1.6 0 0  -1.4 0 0  -1.2 0 0  -1 0 0  -0.8 0 0  -0.6000000000000001 0 0  -0.3999999999999999 0 0  -0.2 0 0  0 0 0  0.2000000000000002 0 0  0.3999999999999999 0 0  0.6000000000000001 0 0  0.7999999999999998 0 0  1 0 0  1.2 0 0  1.4 0 0  1.6 0 0  1.8 0 0  2 0 0  -2 0.2000000000000002 0  -1.8 0.2000000000000002 0  -1.6 0.2000000000000002 0  -1.4 0.2000000000000002 0  -1.2 0.2000000000000002 0  -1 0.2000000000000002 0  -0.8 0.2000000000000002 0  -0.6000000000000001 0.2000000000000002 0  -0.3999999999999999 0.2000000000000002 0  -0.2 0.2000000000000002 0  0 0.2000000000000002 0  0.2000000000000002 0.2000000000000002 0  0.3999999999999999 0.2000000000000002 0  0.6000000000000001 0.2000000000000002 0  0.7999999999999998 0.2000000000000002 0  1 0.2000000000000002 0  1.2 0.2000000000000002 0  1.4 0.2000000000000002 0  1.6 0.2000000000000002 0  1.8 0.2000000000000002 0  2 0.2000000000000002 0  -2 0.3999999999999999 0  -1.8 0.3999999999999999 0  -1.6 0.3999999999999999 0  -1.4 0.3999999999999999 0  -1.2 0.3999999999999999 0  -1 0.3999999999999999 0  -0.8 0.3999999999999999 0  -0.6000000000000001 0.3999999999999999 0  -0.3999999999999999 0.3999999999999999 0  -0.2 0.3999999999999999 0  0 0.3999999999999999 0  0.2000000000000002 0.3999999999999999 0  0.3999999999999999 0.3999999999999999 0  0.6000000000000001 0.3999999999999999 0  0.7999999999999998 0.3999999999999999 0  1 0.3999999999999999 0  1.2 0.3999999999999999 0  1.4 0.3999999999999999 0  1.6 0.3999999999999999 0  1.8 0.3999999999999999 0  2 0.3999999999999999 0  -2 0.6000000000000001 0  -1.8 0.6000000000000001 0  -1.6 0.6000000000000001 0  -1.4 0.6000000000000001 0  -1.2 0.6000000000000001 0  -1 0.6000000000000001 0  -0.8 0.6000000000000001 0  -0.6000000000000001 0.6000000000000001 0  -0.3999999999999999 0.6000000000000001 0  -0.2 0.6000000000000001 0  0 0.6000000000000001 0  0.2000000000000002 0.6000000000000001 0  0.3999999999999999 0.6000000000000001 0  0.6000000000000001 0.6000000000000001 0  0.7999999999999998 0.6000000000000001 0  1 0.6000000000000001 0  1.2 0.6000000000000001 0  1.4 0.6000000000000001 0  1.6 0.6000000000000001 0  1.8 0.6000000000000001 0  2 0.6000000000000001 0  -2 0.7999999999999998 0  -1.8 0.7999999999999998 0  -1.6 0.7999999999999998 0  -1.4 0.7999999999999998 0  -1.2 0.7999999999999998 0  -1 0.7999999999999998 0  -0.8 0.7999999999999998 0  -0.6000000000000001 0.7999999999999998 0  -0.3999999999999999 0.7999999999999998 0  -0.2 0.7999999999999998 0  0 0.7999999999999998 0  0.2000000000000002 0.7999999999999998 0  0.3999999999999999 0.7999999999999998 0  0.6000000000000001 0.7999999999999998 0  0.7999999999999998 0.7999999999999998 0  1 0.7999999999999998 0  1.2 0.7999999999999998 0  1.4 0.7999999999999998 0  1.6 0.7999999999999998 0  1.8 0.7999999999999998 0  2 0.7999999999999998 0  -2 1 0  -1.8 1 0  -1.6 1 0  -1.4 1 0  -1.2 1 0  -1 1 0  -0.8 1 0  -0.6000000000000001 1 0  -0.3999999999999999 1 0  -0.2 1 0  0 1 0  0.2000000000000002 1 0  0.3999999999999999 1 0  0.6000000000000001 1 0  0.7999999999999998 1 0  1 1 0  1.2 1 0  1.4 1 0  1.6 1 0  1.8 1 0  2 1 0  -2 1.2 0  -1.8 1.2 0  -1.6 1.2 0  -1.4 1.2 0  -1.2 1.2 0  -1 1.2 0  -0.8 1.2 0  -0.6000000000000001 1.2 0  -0.3999999999999999 1.2 0  -0.2 1.2 0  0 1.2 0  0.2000000000000002 1.2 0  0.3999999999999999 1.2 0  0.6000000000000001 1.2 0  0.7999999999999998 1.2 0  1 1.2 0  1.2 1.2 0  1.4 1.2 0  1.6 1.2 0  1.8 1.2 0  2 1.2 0  -2 1.4 0  -1.8 1.4 0  -1.6 1.4 0  -1.4 1.4 0  -1.2 1.4 0  -1 1.4 0  -0.8 1.4 0  -0.6000000000000001 1.4 0  -0.3999999999999999 1.4 0  -0.2 1.4 0  0 1.4 0  0.2000000000000002 1.4 0  0.3999999999999999 1.4 0  0.6000000000000001 1.4 0  0.7999999999999998 1.4 0  1 1.4 0  1.2 1.4 0  1.4 1.4 0  1.6 1.4 0  1.8 1.4 0  2 1.4 0  -2 1.6 0  -1.8 1.6 0  -1.6 1.6 0  -1.4 1.6 0  -1.2 1.6 0  -1 1.6 0  -0.8 1.6 0  -0.6000000000000001 1.6 0  -0.3999999999999999 1.6 0  -0.2 1.6 0  0 1.6 0  0.2000000000000002 1.6 0  0.3999999999999999 1.6 0  0.6000000000000001 1.6 0  0.7999999999999998 1.6 0  1 1.6 0  1.2 1.6 0  1.4 1.6 0  1.6 1.6 0  1.8 1.6 0  2 1.6 0  -2 1.8 0  -1.8 1.8 0  -1.6 1.8 0  -1.4 1.8 0  -1.2 1.8 0  -1 1.8 0  -0.8 1.8 0  -0.6000000000000001 1.8 0  -0.3999999999999999 1.8 0  -0.2 1.8 0  0 1.8 0  0.2000000000000002 1.8 0  0.3999999999999999 1.8 0  0.6000000000000001 1.8 0  0.7999999999999998 1.8 0  1 1.8 0  1.2 1.8 0  1.4 1.8 0  1.6 1.8 0  1.8 1.8 0  2 1.8 0  -2 2 0  -1.8 2 0  -1.6 2 0  -1.4 2 0  -1.2 2 0  -1 2 0  -0.8 2 0  -0.6000000000000001 2 0  -0.3999999999999999 2 0  -0.2 2 0  0 2 0  0.2000000000000002 2 0  0.3999999999999999 2 0  0.6000000000000001 2 0  0.7999999999999998 2 0  1 2 0  1.2 2 0  1.4 2 0  1.6 2 0  1.8 2 0  2 2 0  </DataArray>
</Points>
<Cells>
[...]
<PointData  Scalars="f_8"> 
<DataArray  type="Float64"  Name="f_8"  format="ascii">3.6130824762387978e-02  3.6134906367840128e-02  3.6136612660575350e-02  3.6137502861661751e-02  3.6138038239554367e-02  3.6138387379664703e-02  3.6138626562516422e-02  3.6138796983279937e-02  3.6138924103565707e-02  3.6139025513254659e-02  3.6139114775555162e-02  3.6139203719536092e-02  3.6139304171451857e-02  3.6139429683004043e-02  3.6139597812580769e-02  3.6139833942213394e-02  3.6140179070130056e-02  3.6140708989492912e-02  3.6141591123794184e-02  3.6143284627407041e-02  3.6147351204661803e-02  3.6160393284743221e-02  3.6161337365010579e-02  3.6162251090748443e-02  3.6162902322138965e-02  3.6163347826522405e-02  3.6163654938905845e-02  3.6163870711668232e-02  3.6164026281630499e-02  3.6164142925888140e-02  3.6164236129934163e-02  3.6164318167258118e-02  3.6164399873890862e-02  3.6164492082643537e-02  3.6164607055387765e-02  3.6164760251497875e-02  3.6164972897676659e-02  3.6165276050467522e-02  3.6165716693040716e-02  3.6166362354611403e-02  3.6167271143086474e-02  3.6168214388063225e-02  3.6237036861009764e-02  3.6237143180408785e-02  3.6237488863824420e-02  3.6237833418796550e-02  3.6238112761731174e-02  3.6238324066910070e-02  3.6238480265762305e-02  3.6238595869321780e-02  3.6238683503791266e-02  3.6238753665171521e-02  3.6238815316224311e-02  3.6238876648425913e-02  3.6238945854829945e-02  3.6239031903897108e-02  3.6239145305876470e-02  3.6239298723834835e-02  3.6239506768344740e-02  3.6239782634863001e-02  3.6240124140074090e-02  3.6240468495248132e-02  3.6240576909299195e-02  3.6359420584384267e-02  3.6359230173253654e-02  3.6359248450876312e-02  3.6359347095076384e-02  3.6359459112775015e-02  3.6359558071795063e-02  3.6359637195877544e-02  3.6359697780336327e-02  3.6359743911290737e-02  3.6359780354320574e-02  3.6359811864302490e-02  3.6359843088506920e-02  3.6359878682192134e-02  3.6359923427123526e-02  3.6359982144892229e-02  3.6360059028930296e-02  3.6360155575207505e-02  3.6360265369644526e-02  3.6360362579597502e-02  3.6360381029782021e-02  3.6360193107839625e-02  3.6524066439188249e-02  3.6523729244533877e-02  3.6523552929857345e-02  3.6523474143923748e-02  3.6523445217054196e-02  3.6523437933295995e-02  3.6523437846217761e-02  3.6523438502844563e-02  3.6523437617067465e-02  3.6523434913489659e-02  3.6523431012822967e-02  3.6523426872584308e-02  3.6523423463028636e-02  3.6523421446295681e-02  3.6523420627291067e-02  3.6523418857410811e-02  3.6523409904565325e-02  3.6523379652917985e-02  3.6523300326381937e-02  3.6523124722019365e-02  3.6522789774938724e-02  3.6726255738630038e-02  3.6725826639837512e-02  3.6725526447677959e-02  3.6725322626074912e-02  3.6725183888506110e-02  3.6725086599784816e-02  3.6725014878090954e-02  3.6724958631557822e-02  3.6724911527641971e-02  3.6724869469257737e-02  3.6724829573268190e-02  3.6724789488576048e-02  3.6724746878509060e-02  3.6724698905684389e-02  3.6724641557342744e-02  3.6724568634754262e-02  3.6724470240244715e-02  3.6724330748170733e-02  3.6724126816603878e-02  3.6723827418610314e-02  3.6723400133794971e-02  3.6960359682872583e-02  3.6959867725090016e-02  3.6959485552789197e-02  3.6959194951779142e-02  3.6958975136736787e-02  3.6958807451119118e-02  3.6958676948365646e-02  3.6958572235866800e-02  3.6958484686643450e-02  3.6958407577357563e-02  3.6958335344440943e-02  3.6958262972247885e-02  3.6958185458298376e-02  3.6958097280037176e-02  3.6957991787041962e-02  3.6957860461975696e-02  3.6957692060366421e-02  3.6957471814450367e-02  3.6957181251574718e-02  3.6956799728566025e-02  3.6956309076883853e-02  3.7220048407928044e-02  3.7219514690447202e-02  3.7219079470993593e-02  3.7218731370009625e-02  3.7218455761291007e-02  3.7218237768211385e-02  3.7218063888895737e-02  3.7217922521994823e-02  3.7217803862610817e-02  3.7217699520547355e-02  3.7217602053142056e-02  3.7217504491402258e-02  3.7217399876089602e-02  3.7217280794578068e-02  3.7217138908840937e-02  3.7216964489702069e-02  3.7216746033351990e-02  3.7216470148711142e-02  3.7216122064750418e-02  3.7215687228511117e-02  3.7215154275224482e-02  3.7498477067429863e-02  3.7497919874762649e-02  3.7497454530996753e-02  3.7497072989398188e-02  3.7496764058181142e-02  3.7496515326398853e-02  3.7496314523198779e-02  3.7496150234198271e-02  3.7496012122123064e-02  3.7495890834916466e-02  3.7495777743352554e-02  3.7495664597488876e-02  3.7495543152444362e-02  3.7495404794533643e-02  3.7495240198495199e-02  3.7495039065401664e-02  3.7494790029120977e-02  3.7494480871663197e-02  3.7494099229659093e-02  3.7493633940511521e-02  3.7493076956966513e-02  3.7788470015419226e-02  3.7787906385167422e-02  3.7787430853423287e-02  3.7787036921681200e-02  3.7786715134168272e-02  3.7786454457268942e-02  3.7786243420044892e-02  3.7786070854210402e-02  3.7785926246345684e-02  3.7785799791833559e-02  3.7785682251211962e-02  3.7785564692765228e-02  3.7785438184566054e-02  3.7785293486688826e-02  3.7785120794245099e-02  3.7784909594240405e-02  3.7784648719723660e-02  3.7784326701495265e-02  3.7783932506542516e-02  3.7783456676080018e-02  3.7782892702318577e-02  3.8082705662796507e-02  3.8082151830150610e-02  3.8081684398405306e-02  3.8081297343947419e-02  3.8080981778378278e-02  3.8080727158646466e-02  3.8080522345313644e-02  3.8080356335013818e-02  3.8080218644528728e-02  3.8080099406725500e-02  3.8079989263863814e-02  3.8079879138352972e-02  3.8079759947066569e-02  3.8079622315702048e-02  3.8079456349834409e-02  3.8079251529249208e-02  3.8078996806351878e-02  3.8078680994841560e-02  3.8078293508921626e-02  3.8077825428964256e-02  3.8077270716261061e-02  3.8373899708901926e-02  3.8373371176286454e-02  3.8372929131582759e-02  3.8372567159416331e-02  3.8372275944837039e-02  3.8372044632762052e-02  3.8371861952456031e-02  3.8371716947391166e-02  3.8371599321668871e-02  3.8371499490183390e-02  3.8371408431512904e-02  3.8371317426493821e-02  3.8371217745515954e-02  3.8371100335609691e-02  3.8370955558773949e-02  3.8370773045742046e-02  3.8370541750049753e-02  3.8370250303597642e-02  3.8369887761995958e-02  3.8369444748332968e-02  3.8368914827265281e-02  3.8654983067081441e-02  3.8654494588719029e-02  3.8654094670661568e-02  3.8653775482383766e-02  3.8653526168173434e-02  3.8653334713077546e-02  3.8653189264030538e-02  3.8653078828778727e-02  3.8652993490735130e-02  3.8652924315024373e-02  3.8652863083210934e-02  3.8652801944377903e-02  3.8652733033189703e-02  3.8652648087220617e-02  3.8652538096351795e-02  3.8652393036585915e-02  3.8652201779167707e-02  3.8651952317119875e-02  3.8651632488684813e-02  3.8651231334597760e-02  3.8650740997524372e-02  3.8919270442240680e-02  3.8918836107633026e-02  3.8918495120634909e-02  3.8918236593889682e-02  3.8918046570941091e-02  3.8917910875443190e-02  3.8917816671301425e-02  3.8917752977904389e-02  3.8917710577086706e-02  3.8917681643817321e-02  3.8917659284662176e-02  3.8917637061561122e-02  3.8917608519660161e-02  3.8917566713572486e-02  3.8917503726913640e-02  3.8917410205641705e-02  3.8917274986916259e-02  3.8917085015353167e-02  3.8916825889626479e-02  3.8916483482914523e-02  3.8916046864537701e-02  3.9160615471200470e-02  3.9160249144031774e-02  3.9159985168303074e-02  3.9159806461499629e-02  3.9159693532128323e-02  3.9159628871269933e-02  3.9159598469363982e-02  3.9159591706091276e-02  3.9159600628151305e-02  3.9159619136132737e-02  3.9159642264798671e-02  3.9159665575217432e-02  3.9159684611609534e-02  3.9159694355654501e-02  3.9159688611075411e-02  3.9159659272154652e-02  3.9159595498092115e-02  3.9159482987678608e-02  3.9159303897101289e-02  3.9159038445544879e-02  3.9158669458245643e-02  3.9373548245067995e-02  3.9373264989740468e-02  3.9373100022975484e-02  3.9373023497666200e-02  3.9373006594856194e-02  3.9373027442098224e-02  3.9373071314825259e-02  3.9373128907950604e-02  3.9373194495994412e-02  3.9373264520990325e-02  3.9373336618616216e-02  3.9373408942898078e-02  3.9373479633779671e-02  3.9373546281534971e-02  3.9373605241286427e-02  3.9373650640163980e-02  3.9373672936662468e-02  3.9373657049386633e-02  3.9373580624499381e-02  3.9373414335186728e-02  3.9373128093771532e-02  3.9553390295885900e-02  3.9553210819597596e-02  3.9553176683359961e-02  3.9553231067129657e-02  3.9553330797512033e-02  3.9553450030783317e-02  3.9553575397565474e-02  3.9553700920507764e-02  3.9553824585406835e-02  3.9553946364652287e-02  3.9554067156110567e-02  3.9554188212711804e-02  3.9554310778628733e-02  3.9554435722718585e-02  3.9554562958363987e-02  3.9554690360517085e-02  3.9554811745935864e-02  3.9554913369989828e-02  3.9554968752777482e-02  3.9554933832729365e-02  3.9554751110550172e-02  3.9696338738943834e-02  3.9696304414295301e-02  3.9696455916061461e-02  3.9696680492596385e-02  3.9696918222002227e-02  3.9697144784719390e-02  3.9697353494488725e-02  3.9697545173235246e-02  3.9697723443230783e-02  3.9697892777086623e-02  3.9698057798445978e-02  3.9698223110407216e-02  3.9698393313649667e-02  3.9698573023638516e-02  3.9698766694770425e-02  3.9698977907284175e-02  3.9699207377373244e-02  3.9699448145089113e-02  3.9699675217372027e-02  3.9699827257386952e-02  3.9699789611981312e-02  3.9799497054691449e-02  3.9799726987268809e-02  3.9800168999702359e-02  3.9800614877755158e-02  3.9801006753536365e-02  3.9801340219151222e-02  3.9801625352220954e-02  3.9801874288305047e-02  3.9802098012564735e-02  3.9802305980403845e-02  3.9802506508560050e-02  3.9802707334777115e-02  3.9802916199055315e-02  3.9803141426387495e-02  3.9803392490807568e-02  3.9803680412318063e-02  3.9804017375463380e-02  3.9804413467231008e-02  3.9804863976201643e-02  3.9805309441998886e-02  3.9805536848944542e-02  3.9860768680625353e-02  3.9861700658823343e-02  3.9862624168350964e-02  3.9863334208126586e-02  3.9863872606572821e-02  3.9864293343937027e-02  3.9864635050282336e-02  3.9864923844991310e-02  3.9865178032270347e-02  3.9865411319817835e-02  3.9865634869316040e-02  3.9865858706339803e-02  3.9866092859530210e-02  3.9866348502296763e-02  3.9866639371631131e-02  3.9866983839029653e-02  3.9867408174269980e-02  3.9867951335774206e-02  3.9868667934166102e-02  3.9869600148109557e-02  3.9870534906571609e-02  3.9878249847271695e-02  3.9881742728530310e-02  3.9883320932795945e-02  3.9884231817036674e-02  3.9884847707666003e-02  3.9885305982923024e-02  3.9885669538485935e-02  3.9885972905274091e-02  3.9886237910718839e-02  3.9886480046239438e-02  3.9886711573131721e-02  3.9886943365645113e-02  3.9887186298716550e-02  3.9887452637277873e-02  3.9887757884473421e-02  3.9888123897809595e-02  3.9888585277147490e-02  3.9889205084363645e-02  3.9890121249277315e-02  3.9891708917902134e-02  3.9895233419894156e-02  </DataArray> 
</PointData> 
</Piece>
</UnstructuredGrid>
</VTKFile>