<?xml version="1.0"?>
<VTKFile type="UnstructuredGrid"  version="0.1"  >
<UnstructuredGrid>
<Piece  NumberOfPoints="441" NumberOfCells="800">
<Points>
<DataArray  type="Float64"  NumberOfComponents="3"  format="ascii">-2 -2 0  -1.8 -2 0  -1.6 -2 0  -1.4 -2 0  -1.2 -2 0  -1 -2 0  -0.8 -2 0  -0.6000000000000001 -2 0  -0.3999999999999999 -2 0  -0.2 -2 0  0 -2 0  0.2000000000000002 -2 0  0.3999999999999999 -2 0  0.6000000000000001 -2 0  0.7999999999999998 -2 0  1 -2 0  1.2 -2 0  1.4 -2 0  1.6 -2 0  1.8 -2 0  2 -2 0  -2 -1.8 0  -1.8 -1.8 0  -1.6 -1.8 0  -1.4 -1.8 0  -1.2 -1.8 0  -1 -1.8 0  -0.8 -1.8 0  -0.6000000000000001 -1.8 0  -0.3999999999999999 -1.8 0  -0.2 -1.8 0  0 -1.8 0  0.2000000000000002 -1.8 0  0.3999999999999999 -1.8 0  0.6000000000000001 -1.8 0  0.7999999999999998 -1.8 0  1 -1.8 0  1.2 -1.8 0  1.4 -1.8 0  1.6 -1.8 0  1.8 -1.8 0  2 -1.8 0  -2 -1.6 0  -1.8 -1.6 0  -1.6 -1.6 0  -1.4 -1.6 0  -1.2 -1.6 0  -1 -1.6 0  -0.8 -1.6 0  -0.6000000000000001 -1.6 0  -0.3999999999999999 -1.6 0  -0.2 -1.6 0  0 -1.6 0  0.2000000000000002 -1.6 0  0.3999999999999999 -1.6 0  0.6000000000000001 -1.6 0  0.7999999999999998 -1.6 0  1 -1.6 0  1.2 -1.6 0  1.4 -1.6 0  1.6 -1.6 0  1.8 -1.6 0  2 -1.6 0  -2 -1.4 0  -1.8 -1.4 0  -1.6 -1.4 0  -1.4 -1.4 0  -1.2 -1.4 0  -1 -1.4 0  -0.8 -1.4 0  -0.6000000000000001 -1.4 0  -0.3999999999999999 -1.4 0  -0.2 -1.4 0  0 -1.4 0  0.2000000000000002 -1.4 0  0.3999999999999999 -1.4 0  0.6000000000000001 -1.4 0  0.7999999999999998 -1.4 0  1 -1.4 0  1.2 -1.4 0  1.4 -1.4 0  1.6 -1.4 0  1.8 -1.4 0  2 -1.4 0  -2 -1.2 0  -1.8 -1.2 0  -1.6 -1.2 0  -1.4 -1.2 0  -1.2 -1.2 0  -1 -1.2 0  -0.8 -1.2 0  -0.6000000000000001 -1.2 0  -0.3999999999999999 -1.2 0  -0.2 -1.2 0  0 -1.2 0  0.2000000000000002 -1.2 0  0.3999999999999999 -1.2 0  0.6000000000000001 -1.2 0  0.7999999999999998 -1.2 0  1 -1.2 0  1.2 -1.2 0  1.4 -1.2 0  1.6 -1.2 0  1.8 -1.2 0  2 -1.2 0  -2 -1 0  -1.8 -1 0  -1.6 -1 0  -1.4 -1 0  -1.2 -1 0  -1 -1 0  -0.8 -1 0  -0.6000000000000001 -1 0  -0.3999999999999999 -1 0  -0.2 -1 0  0 -1 0  0.2000000000000002 -1 0  0.3999999999999999 -1 0  0.6000000000000001 -1 0  0.7999999999999998 -1 0  1 -1 0  1.2 -1 0  1.4 -1 0  1.6 -1 0  1.8 -1 0  2 -1 0  -2 -0.8 0  -1.8 -0.8 0  -1.6 -0.8 0  -1.4 -0.8 0  -1.2 -0.8 0  -1 -0.8 0  -0.8 -0.8 0  -0.6000000000000001 -0.8 0  -0.3999999999999999 -0.8 0  -0.2 -0.8 0  0 -0.8 0  0.2000000000000002 -0.8 0  0.3999999999999999 -0.8 0  0.6000000000000001 -0.8 0  0.7999999999999998 -0.8 0  1 -0.8 0  1.2 -0.8 0  1.4 -0.8 0  1.6 -0.8 0  1.8 -0.8 0  2 -0.8 0  -2 -0.6000000000000001 0  -1.8 -0.6000000000000001 0  -1.6 -0.6000000000000001 0  -1.4 -0.6000000000000001 0  -1.2 -0.6000000000000001 0  -1 -0.6000000000000001 0  -0.8 -0.6000000000000001 0  -0.6000000000000001 -0.6000000000000001 0  -0.3999999999999999 -0.6000000000000001 0  -0.2 -0.6000000000000001 0  0 -0.6000000000000001 0  0.2000000000000002 -0.6000000000000001 0  0.3999999999999999 -0.6000000000000001 0  0.6000000000000001 -0.6000000000000001 0  0.7999999999999998 -0.6000000000000001 0  1 -0.6000000000000001 0  1.2 -0.6000000000000001 0  1.4 -0.6000000000000001 0  1.6 -0.6000000000000001 0  1.8 -0.6000000000000001 0  2 -0.6000000000000001 0  -2 -0.3999999999999999 0  -1.8 -0.3999999999999999 0  -1.6 -0.3999999999999999 0  -1.4 -0.3999999999999999 0  -1.2 -0.3999999999999999 0  -1 -0.3999999999999999 0  -0.8 -0.3999999999999999 0  -0.6000000000000001 -0.3999999999999999 0  -0.3999999999999999 -0.3999999999999999 0  -0.2 -0.3999999999999999 0  0 -0.3999999999999999 0  0.2000000000000002 -0.3999999999999999 0  0.3999999999999999 -0.3999999999999999 0  0.6000000000000001 -0.3999999999999999 0  0.7999999999999998 -0.3999999999999999 0  1 -0.3999999999999999 0  1.2 -0.3999999999999999 0  1.4 -0.3999999999999999 0  1.6 -0.3999999999999999 0  1.8 -0.3999999999999999 0  2 -0.3999999999999999 0  -2 -0.2 0  -1.8 -0.2 0  -1.6 -0.2 0  -1.4 -0.2 0  -1.2 -0.2 0  -1 -0.2 0  -0.8 -0.2 0  -0.6000000000000001 -0.2 0  -0.3999999999999999 -0.2 0  -0.2 -0.2 0  0 -0.2 0  0.2000000000000002 -0.2 0  0.3999999999999999 -0.2 0  0.6000000000000001 -0.2 0  0.7999999999999998 -0.2 0  1 -0.2 0  1.2 -0.2 0  1.4 -0.2 0  1.6 -0.2 0  1.8 -0.2 0  2 -0.2 0  -2 0 0  -1.8 0 0  -1.6 0 0  -1.4 0 0  -1.2 0 0  -1 0 0  -0.8 0 0  -0.6000000000000001 0 0  -0.3999999999999999 0 0  -0.2 0 0  0 0 0  0.2000000000000002 0 0  0.3999999999999999 0 0  0.6000000000000001 0 0  0.7999999999999998 0 0  1 0 0  1.2 0 0  1.4 0 0  1.6 0 0  1.8 0 0  2 0 0  -2 0.2000000000000002 0  -1.8 0.2000000000000002 0  -1.6 0.2000000000000002 0  -1.4 0.2000000000000002 0  -1.2 0.2000000000000002 0  -1 0.2000000000000002 0  -0.8 0.2000000000000002 0  -0.6000000000000001 0.2000000000000002 0  -0.3999999999999999 0.2000000000000002 0  -0.2 0.2000000000000002 0  0 0.2000000000000002 0  0.2000000000000002 0.2000000000000002 0  0.3999999999999999 0.2000000000000002 0  0.6000000000000001 0.2000000000000002 0  0.7999999999999998 0.2000000000000002 0  1 0.2000000000000002 0  1.2 0.2000000000000002 0  1.4 0.2000000000000002 0  1.6 0.2000000000000002 0  1.8 0.2000000000000002 0  2 0.2000000000000002 0  -2 0.3999999999999999 0  -1.8 0.3999999999999999 0  -1.6 0.3999999999999999 0  -1.4 0.3999999999999999 0  -1.2 0.3999999999999999 0  -1 0.3999999999999999 0  -0.8 0.3999999999999999 0  -0.6000000000000001 0.3999999999999999 0  -0.3999999999999999 0.3999999999999999 0  -0.2 0.3999999999999999 0  0 0.3999999999999999 0  0.2000000000000002 0.3999999999999999 0  0.3999999999999999 0.3999999999999999 0  0.6000000000000001 0.3999999999999999 0  0.7999999999999998 0.3999999999999999 0  1 0.3999999999999999 0  1.2 0.3999999999999999 0  1.4 0.3999999999999999 0  1.6 0.3999999999999999 0  1.8 0.3999999999999999 0  2 0.3999999999999999 0  -2 0.6000000000000001 0  -1.8 0.6000000000000001 0  -1.6 0.6000000000000001 0  -1.4 0.6000000000000001 0  -1.2 0.6000000000000001 0  -1 0.6000000000000001 0  -0.8 0.6000000000000001 0  -0.6000000000000001 0.6000000000000001 0  -0.3999999999999999 0.6000000000000001 0  -0.2 0.6000000000000001 0  0 0.6000000000000001 0  0.2000000000000002 0.6000000000000001 0  0.3999999999999999 0.6000000000000001 0  0.6000000000000001 0.6000000000000001 0  0.7999999999999998 0.6000000000000001 0  1 0.6000000000000001 0  1.2 0.6000000000000001 0  1.4 0.6000000000000001 0  1.6 0.6000000000000001 0  1.8 0.6000000000000001 0  2 0.6000000000000001 0  -2 0.7999999999999998 0  -1.8 0.7999999999999998 0  -1.6 0.7999999999999998 0  -1.4 0.7999999999999998 0  -1.2 0.7999999999999998 0  -1 0.7999999999999998 0  -0.8 0.7999999999999998 0  -0.6000000000000001 0.7999999999999998 0  -0.3999999999999999 0.7999999999999998 0  -0.2 0.7999999999999998 0  0 0.7999999999999998 0  0.2000000000000002 0.7999999999999998 0  0.3999999999999999 0.7999999999999998 0  0.6000000000000001 0.7999999999999998 0  0.7999999999999998 0.7999999999999998 0  1 0.7999999999999998 0  1.2 0.7999999999999998 0  1.4 0.7999999999999998 0  1.6 0.7999999999999998 0  1.8 0.7999999999999998 0  2 0.7999999999999998 0  -2 1 0  -1.8 1 0  -1.6 1 0  -1.4 1 0  -1.2 1 0  -1 1 0  -0.8 1 0  -0.6000000000000001 1 0  -0.3999999999999999 1 0  -0.2 1 0  0 1 0  0.2000000000000002 1 0  0.3999999999999999 1 0  0.6000000000000001 1 0  0.7999999999999998 1 0  1 1 0  1.2 1 0  1.4 1 0  1.6 1 0  1.8 1 0  2 1 0  -2 1.2 0  -1.8 1.2 0  -1.6 1.2 0  -1.4 1.2 0  -1.2 1.2 0  -1 1.2 0  -0.8 1.2 0  -0.6000000000000001 1.2 0  -0.3999999999999999 1.2 0  -0.2 1.2 0  0 1.2 0  0.2000000000000002 1.2 0  0.3999999999999999 1.2 0  0.6000000000000001 1.2 0  0.7999999999999998 1.2 0  1 1.2 0  1.2 1.2 0  1.4 1.2 0  1.6 1.2 0  1.8 1.2 0  2 1.2 0  -2 1.4 0  -1.8 1.4 0  -1.6 1.4 0  -1.4 1.4 0  -1.2 1.4 0  -1 1.4 0  -0.8 1.4 0  -0.6000000000000001 1.4 0  -0.3999999999999999 1.4 0  -0.2 1.4 0  0 1.4 0  0.2000000000000002 1.4 0  0.3999999999999999 1.4 0  0.6000000000000001 1.4 0  0.7999999999999998 1.4 0  1 1.4 0  1.2 1.4 0  1.4 1.4 0  1.6 1.4 0  1.8 1.4 0  2 1.4 0  -2 1.6 0  -1.8 1.6 0  -1.6 1.6 0  -1.4 1.6 0  -1.2 1.6 0  -1 1.6 0  -0.8 1.6 0  -0.6000000000000001 1.6 0  -0.3999999999999999 1.6 0  -0.2 1.6 0  0 1.6 0  0.2000000000000002 1.6 0  0.3999999999999999 1.6 0  0.6000000000000001 1.6 0  0.7999999999999998 1.6 0  1 1.6 0  1.2 1.6 0  1.4 1.6 0  1.6 1.6 0  1.8 1.6 0  2 1.6 0  -2 1.8 0  -1.8 1.8 0  -1.6 1.8 0  -1.4 1.8 0  -1.2 1.8 0  -1 1.8 0  -0.8 1.8 0  -0.6000000000000001 1.8 0  -0.3999999999999999 1.8 0  -0.2 1.8 0  0 1.8 0  0.2000000000000002 1.8 0  0.3999999999999999 1.8 0  0.6000000000000001 1.8 0  0.7999999999999998 1.8 0  1 1.8 0  1.2 1.8 0  1.4 1.8 0  1.6 1.8 0  1.8 1.8 0  2 1.8 0  -2 2 0  -1.8 2 0  -1.6 2 0  -1.4 2 0  -1.2 2 0  -1 2 0  -0.8 2 0  -0.6000000000000001 2 0  -0.3999999999999999 2 0  -0.2 2 0  0 2 0  0.2000000000000002 2 0  0.3999999999999999 2 0  0.6000000000000001 2 0  0.7999999999999998 2 0  1 2 0  1.2 2 0  1.4 2 0  1.6 2 0  1.8 2 0  2 2 0  </DataArray>
</Points>
<Cells>
[...]
<PointData  Scalars="f_8"> 
<DataArray  type="Float64"  Name="f_8"  format="ascii">1.1719394397644929e-01  1.1326403052659370e-01  1.0400237573971836e-01  9.0755805957720578e-02  7.5307808647309696e-02  5.9468250533934737e-02  4.4732368388501365e-02  3.2086077839803502e-02  2.1972680693548553e-02  1.4383929058461524e-02  9.0135594711762863e-03  5.4146920978851336e-03  3.1230708793011227e-03  1.7323359600249955e-03  9.2573148556131322e-04  4.7752019373412536e-04  2.3839701766416890e-04  1.1586189915088728e-04  5.6041310220597556e-05  2.9765577848836269e-05  2.3482173861410223e-05  1.1599236295120231e-01  1.1291339264414681e-01  1.0422879813177149e-01  9.1295212867436956e-02  7.5926556429381592e-02  5.9992409785654829e-02  4.5065140358750269e-02  3.2205145788582495e-02  2.1910691725699944e-02  1.4201607189808719e-02  8.7752213637489248e-03  5.1721559865734196e-03  2.9091793092222472e-03  1.5618797724727402e-03  8.0027563735824521e-04  3.9105890212027937e-04  1.8197492180333218e-04  8.0488541575476664e-05  3.3991266771856559e-05  1.4636888765092917e-05  9.2939952362405916e-06  1.1598495173954801e-01  1.1296219030229351e-01  1.0436851951950664e-01  9.1495364646945854e-02  7.6128747464685925e-02  6.0141549286862710e-02  4.5128975032602651e-02  3.2179889222352098e-02  2.1815274304944791e-02  1.4066203955304064e-02  8.6299083502895235e-03  5.0394498782499360e-03  2.8014342498982108e-03  1.4824408909037735e-03  7.4647800487327438e-04  3.5739527029721001e-04  1.6247264796075139e-04  7.0036066790681985e-05  2.8788144460948015e-05  1.2089904959879749e-05  7.6468597573916020e-06  1.1605368750527532e-01  1.1303464774822566e-01  1.0444533937292634e-01  9.1568305836630129e-02  7.6184505005872150e-02  6.0168577012650486e-02  4.5122819350970830e-02  3.2144655348099703e-02  2.1761345025137251e-02  1.4006046090868800e-02  8.5741499318758088e-03  4.9946432001021328e-03  2.7697714216775712e-03  1.4628323675605465e-03  7.3612042672501887e-04  3.5313739865924998e-04  1.6165948346340248e-04  7.0832619519727987e-05  3.0150717303586711e-05  1.3575443866055460e-05  9.1927303523559852e-06  1.1607836355091983e-01  1.1305886136479015e-01  1.0446713877192874e-01  9.1585086549412914e-02  7.6193712094549976e-02  6.0168882858394765e-02  4.5114937635868928e-02  3.2131244002501926e-02  2.1746063048601397e-02  1.3992300792459963e-02  8.5641436672952032e-03  4.9890545887590161e-03  2.7680311197284427e-03  1.4637085533463065e-03  7.3829716227478948e-04  3.5558928576174056e-04  1.6378276571573703e-04  7.2400051813642540e-05  3.1190598606899371e-05  1.4255062700323728e-05  9.7468740804682557e-06  1.1608160170514163e-01  1.1306179716647555e-01  1.0446932569769037e-01  9.1586134281233411e-02  7.6193423222201517e-02  6.0167395010815840e-02  4.5112753034715881e-02  3.2129085702221019e-02  2.1744613491024405e-02  1.3991957817273784e-02  8.5649145984484851e-03  4.9906210775221473e-03  2.7699247447811846e-03  1.4654969976463212e-03  7.3970281946820734e-04  3.5651599073897291e-04  1.6427336542955014e-04  7.2566860850147821e-05  3.1154419960011787e-05  1.4110702721226826e-05  9.5574715187054893e-06  1.1608139511534055e-01  1.1306152031429324e-01  1.0446897069394427e-01  9.1585717671961081e-02  7.6192995428236779e-02  6.0167040225692678e-02  4.5112569487199571e-02  3.2129147972863245e-02  2.1744934664384426e-02  1.3992474646754221e-02  8.5655070227810253e-03  4.9911567803305329e-03  2.7703054107904952e-03  1.4656845330701582e-03  7.3971765564451598e-04  3.5641473974469431e-04  1.6412047236587970e-04  7.2412744073448577e-05  3.1025239376678366e-05  1.4008054827803827e-05  9.4633417383127280e-06  1.1608132537694346e-01  1.1306144651776670e-01  1.0446890138405900e-01  9.1585663512202237e-02  7.6192967337368231e-02  6.0167046216707654e-02  4.5112610525506497e-02  3.2129214634459786e-02  2.1745007315284570e-02  1.3992528711267743e-02  8.5655218334996473e-03  4.9911237435293510e-03  2.7702311343742519e-03  1.4655874047533163e-03  7.3962005377388527e-04  3.5633506466368076e-04  1.6406849651941878e-04  7.2389351588338427e-05  3.1025246120538109e-05  1.4023688740110081e-05  9.4862408460636775e-06  1.1608133312257721e-01  1.1306145581287444e-01  1.0446891231092337e-01  9.1585675814679274e-02  7.6192980172442692e-02  6.0167057965522394e-02  4.5112618820422674e-02  3.2129216796675630e-02  2.1745001270617823e-02  1.3992514117971004e-02  8.5655008222622099e-03  4.9911006773384831e-03  2.7702112762891589e-03  1.4655750521885783e-03  7.3961706317553851e-04  3.5634047369889713e-04  1.6407932564239529e-04  7.2402081770503538e-05  3.1037268939518795e-05  1.4034217615136795e-05  9.4965011825610051e-06  1.1608133422611383e-01  1.1306145701378301e-01  1.0446891345341501e-01  9.1585676694857038e-02  7.6192980570749080e-02  6.0167057703809534e-02  4.5112617841820371e-02  3.2129215253196508e-02  2.1744999579996753e-02  1.3992512932044125e-02  8.5655008648769480e-03  4.9911024767108000e-03  2.7702149028804531e-03  1.4655800085749415e-03  7.3962241000332697e-04  3.5634514496659997e-04  1.6408247795162965e-04  7.2403314080230199e-05  3.1036644930373428e-05  1.4032153278632937e-05  9.4936601565780425e-06  1.1608133394040959e-01  1.1306145666294155e-01  1.0446891304708351e-01  9.1585676253639475e-02  7.6192980129397458e-02  6.0167057312892909e-02  4.5112617565133788e-02  3.2129215157984170e-02  2.1744999718147976e-02  1.3992513314169102e-02  8.5655014359565466e-03  4.9911031083953407e-03  2.7702154164297448e-03  1.4655802292580747e-03  7.3962223353124176e-04  3.5634458314869511e-04  1.6408165618319304e-04  7.2402416128078639e-05  3.1035826508092655e-05  1.4031460196238903e-05  9.4929858411332283e-06  1.1608133372077471e-01  1.1306145652263160e-01  1.0446891301896825e-01  9.1585676341241942e-02  7.6192980311467304e-02  6.0167057550327301e-02  4.5112617810088157e-02  3.2129215363651417e-02  2.1744999846934079e-02  1.3992513342637330e-02  8.5655013566247606e-03  4.9911029298612634e-03  2.7702151630264165e-03  1.4655799396466659e-03  7.3962195619628522e-04  3.5634436764631224e-04  1.6408154207911589e-04  7.2402424206601963e-05  3.1035956062633105e-05  1.4031691660093906e-05  9.4932829100801288e-06  1.1608133260094862e-01  1.1306145551814038e-01  1.0446891204503164e-01  9.1585675435597605e-02  7.6192979592757976e-02  6.0167057153531316e-02  4.5112617823379962e-02  3.2129215788919301e-02  2.1745000596301228e-02  1.3992514268406678e-02  8.5655022988051863e-03  4.9911037603640376e-03  2.7702158106020485e-03  1.4655803907999282e-03  7.3962223811775175e-04  3.5634452468337111e-04  1.6408161640344752e-04  7.2402446380335123e-05  3.1035945521273998e-05  1.4031663199452958e-05  9.4932538779435808e-06  1.1608134975878352e-01  1.1306146943668446e-01  1.0446892163516518e-01  9.1585680227336000e-02  7.6192979720874424e-02  6.0167053349038262e-02  4.5112611312464440e-02  3.2129208059012850e-02  2.1744993076563277e-02  1.3992508032734156e-02  8.5654978971453181e-03  4.9911012237009002e-03  2.7702147972298017e-03  1.4655803919358789e-03  7.3962275962413259e-04  3.5634519648569820e-04  1.6408222409724385e-04  7.2402908071411091e-05  3.1036264687681135e-05  1.4031881640306879e-05  9.4934175502007061e-06  1.1608134721714418e-01  1.1306146949479823e-01  1.0446893282413654e-01  9.1585704719765126e-02  7.6193013967153667e-02  6.0167090265387517e-02  4.5112643158193161e-02  3.2129229038220852e-02  2.1745000862594725e-02  1.3992503861757693e-02  8.5654854638773700e-03  4.9910850452727388e-03  2.7701987742578464e-03  1.4655670173160142e-03  7.3961302772135925e-04  3.5633897775649457e-04  1.6407878911540050e-04  7.2401366257120756e-05  3.1035822433829505e-05  1.4031937040010416e-05  9.4935599729065507e-06  1.1608062545662409e-01  1.1306083759090788e-01  1.0446844009152523e-01  9.1585379376637993e-02  7.6192863551416759e-02  6.0167101648910828e-02  4.5112783752891281e-02  3.2129451922437151e-02  2.1745254426366937e-02  1.3992743101986581e-02  8.5656804799378837e-03  4.9912237669933711e-03  2.7702840294453555e-03  1.4656104392393992e-03  7.3962882615892956e-04  3.5633958382995699e-04  1.6407290964605198e-04  7.2393926888827229e-05  3.1028917506135170e-05  1.4026043523681005e-05  9.4885723357300732e-06  1.1607985837261588e-01  1.1306009306759547e-01  1.0446747925686606e-01  9.1584081182941854e-02  7.6191272566601326e-02  6.0165413981246987e-02  4.5111264446655926e-02  3.2128325741631200e-02  2.1744627033696104e-02  1.3992584768324772e-02  8.5658653142497501e-03  4.9915924768206979e-03  2.7706976382152375e-03  1.4659779779355995e-03  7.3990943354586790e-04  3.5652932699538911e-04  1.6418770565267067e-04  7.2455906388705732e-05  3.1058682997552930e-05  1.4039911726506812e-05  9.4984192986189133e-06  1.1609740879327146e-01  1.1307625631685600e-01  1.0447998821248418e-01  9.1590948012885934e-02  7.6191460219244292e-02  6.0159318878638970e-02  4.5100620562580844e-02  3.2115580283091527e-02  2.1732140857787380e-02  1.3982030170980644e-02  8.5580063217845018e-03  4.9864103845324061e-03  2.7676963883574339e-03  1.4644978661624815e-03  7.3934634883120794e-04  3.5643637300016349e-04  1.6428705275062179e-04  7.2603884635023691e-05  3.1198623338078699e-05  1.4160664503782452e-05  9.6020913641944749e-06  1.1617740211097270e-01  1.1315600672039236e-01  1.0455584019428700e-01  9.1653276268150452e-02  7.6229816434988093e-02  6.0167767835161826e-02  4.5080276922407125e-02  3.2073730246520486e-02  2.1679154769393857e-02  1.3927918981365906e-02  8.5100441829830259e-03  4.9483265295654257e-03  2.7401449290650405e-03  1.4461559201151605e-03  7.2804276734523209e-04  3.4997063453119735e-04  1.6085873032617467e-04  7.0932265348924153e-05  3.0460237088081731e-05  1.3849885064198775e-05  9.3725198088044995e-06  1.1622435472572239e-01  1.1325994799212018e-01  1.0473498112153837e-01  9.1870320787683299e-02  7.6428122949941182e-02  6.0299646338415343e-02  4.5122693419108004e-02  3.2030540680258630e-02  2.1573448450184555e-02  1.3790386012215175e-02  8.3687336600435092e-03  4.8227329686621892e-03  2.6398912834995087e-03  1.3728279683217670e-03  6.7827990211378770e-04  3.1835942248979667e-04  1.4192320616598946e-04  6.0134733844070394e-05  2.4451788692973320e-05  1.0274580555237617e-05  6.4445429699389083e-06  1.1504905898570196e-01  1.1292039210283913e-01  1.0497577551421312e-01  9.2435700323800510e-02  7.7081831739467449e-02  6.0858197767008883e-02  4.5479075178095942e-02  3.2156744822573365e-02  2.1502805636282579e-02  1.3589188462305363e-02  8.1085532515435734e-03  4.5613779493972320e-03  2.4134053646899241e-03  1.1964306167371666e-03  5.5214951035346027e-04  2.3444502003676390e-04  8.9428703614602127e-05  2.8860155263666790e-05  6.1933555860890760e-06  -1.1259981633258092e-06  -2.9948306388704243e-06  </DataArray> 
</PointData> 
</Piece>
</UnstructuredGrid>
</VTKFile>