<?xml version="1.0"?>
<VTKFile type="UnstructuredGrid"  version="0.1"  >
<UnstructuredGrid>
<Piece  NumberOfPoints="441" NumberOfCells="800">
<Points>
<DataArray  type="Float64"  NumberOfComponents="3"  format="ascii">-2 -2 0  -1.8 -2 0  -1.6 -2 0  -1.4 -2 0  -1.2 -2 0  -1 -2 0  -0.8 -2 0  -0.6000000000000001 -2 0  -0.3999999999999999 -2 0  -0.2 -2 0  0 -2 0  0.2000000000000002 -2 0  0.3999999999999999 -2 0  0.6000000000000001 -2 0  0.7999999999999998 -2 0  1 -2 0  1.2 -2 0  1.4 -2 0  1.6 -2 0  1.8 -2 0  2 -2 0  -2 -1.8 0  -1.8 -1.8 0  -1.6 -1.8 0  -1.4 -1.8 0  -1.2 -1.8 0  -1 -1.8 0  -0.8 -1.8 0  -0.6000000000000001 -1.8 0  -0.3999999999999999 -1.8 0  -0.2 -1.8 0  0 -1.8 0  0.2000000000000002 -1.8 0  0.3999999999999999 -1.8 0  0.6000000000000001 -1.8 0  0.7999999999999998 -1.8 0  1 -1.8 0  1.2 -1.8 0  1.4 -1.8 0  1.6 -1.8 0  1.8 -1.8 0  2 -1.8 0  -2 -1.6 0  -1.8 -1.6 0  -1.6 -1.6 0  -1.4 -1.6 0  -1.2 -1.6 0  -1 -1.6 0  -0.8 -1.6 0  -0.6000000000000001 -1.6 0  -0.3999999999999999 -1.6 0  -0.2 -1.6 0  0 -1.6 0  0.2000000000000002 -1.6 0  0.3999999999999999 -1.6 0  0.6000000000000001 -1.6 0  0.7999999999999998 -1.6 0  1 -1.6 0  1.2 -1.6 0  1.4 -1.6 0  1.6 -1.6 0  1.8 -1.6 0  2 -1.6 0  -2 -1.4 0  -1.8 -1.4 0  -1.6 -1.4 0  -1.4 -1.4 0  -1.2 -1.4 0  -1 -1.4 0  -0.8 -1.4 0  -0.6000000000000001 -1.4 0  -0.3999999999999999 -1.4 0  -0.2 -1.4 0  0 -1.4 0  0.2000000000000002 -1.4 0  0.3999999999999999 -1.4 0  0.6000000000000001 -1.4 0  0.7999999999999998 -1.4 0  1 -1.4 0  1.2 -1.4 0  1.4 -1.4 0  1.6 -1.4 0  1.8 -1.4 0  2 -1.4 0  -2 -1.2 0  -1.8 -1.2 0  -1.6 -1.2 0  -1.4 -1.2 0  -1.2 -1.2 0  -1 -1.2 0  -0.8 -1.2 0  -0.6000000000000001 -1.2 0  -0.3999999999999999 -1.2 0  -0.2 -1.2 0  0 -1.2 0  0.2000000000000002 -1.2 0  0.3999999999999999 -1.2 0  0.6000000000000001 -1.2 0  0.7999999999999998 -1.2 0  1 -1.2 0  1.2 -1.2 0  1.4 -1.2 0  1.6 -1.2 0  1.8 -1.2 0  2 -1.2 0  -2 -1 0  -1.8 -1 0  -1.6 -1 0  -1.4 -1 0  -1.2 -1 0  -1 -1 0  -0.8 -1 0  -0.6000000000000001 -1 0  -0.3999999999999999 -1 0  -0.2 -1 0  0 -1 0  0.2000000000000002 -1 0  0.3999999999999999 -1 0  0.6000000000000001 -1 0  0.7999999999999998 -1 0  1 -1 0  1.2 -1 0  1.4 -1 0  1.6 -1 0  1.8 -1 0  2 -1 0  -2 -0.8 0  -1.8 -0.8 0  -1.6 -0.8 0  -1.4 -0.8 0  -1.2 -0.8 0  -1 -0.8 0  -0.8 -0.8 0  -0.6000000000000001 -0.8 0  -0.3999999999999999 -0.8 0  -0.2 -0.8 0  0 -0.8 0  0.2000000000000002 -0.8 0  0.3999999999999999 -0.8 0  0.6000000000000001 -0.8 0  0.7999999999999998 -0.8 0  1 -0.8 0  1.2 -0.8 0  1.4 -0.8 0  1.6 -0.8 0  1.8 -0.8 0  2 -0.8 0  -2 -0.6000000000000001 0  -1.8 -0.6000000000000001 0  -1.6 -0.6000000000000001 0  -1.4 -0.6000000000000001 0  -1.2 -0.6000000000000001 0  -1 -0.6000000000000001 0  -0.8 -0.6000000000000001 0  -0.6000000000000001 -0.6000000000000001 0  -0.3999999999999999 -0.6000000000000001 0  -0.2 -0.6000000000000001 0  0 -0.6000000000000001 0  0.2000000000000002 -0.6000000000000001 0  0.3999999999999999 -0.6000000000000001 0  0.6000000000000001 -0.6000000000000001 0  0.7999999999999998 -0.6000000000000001 0  1 -0.6000000000000001 0  1.2 -0.6000000000000001 0  1.4 -0.6000000000000001 0  1.6 -0.6000000000000001 0  1.8 -0.6000000000000001 0  2 -0.6000000000000001 0  -2 -0.3999999999999999 0  -1.8 -0.3999999999999999 0  -1.6 -0.3999999999999999 0  -1.4 -0.3999999999999999 0  -1.2 -0.3999999999999999 0  -1 -0.3999999999999999 0  -0.8 -0.3999999999999999 0  -0.6000000000000001 -0.3999999999999999 0  -0.3999999999999999 -0.3999999999999999 0  -0.2 -0.3999999999999999 0  0 -0.3999999999999999 0  0.2000000000000002 -0.3999999999999999 0  0.3999999999999999 -0.3999999999999999 0  0.6000000000000001 -0.3999999999999999 0  0.7999999999999998 -0.3999999999999999 0  1 -0.3999999999999999 0  1.2 -0.3999999999999999 0  1.4 -0.3999999999999999 0  1.6 -0.3999999999999999 0  1.8 -0.3999999999999999 0  2 -0.3999999999999999 0  -2 -0.2 0  -1.8 -0.2 0  -1.6 -0.2 0  -1.4 -0.2 0  -1.2 -0.2 0  -1 -0.2 0  -0.8 -0.2 0  -0.6000000000000001 -0.2 0  -0.3999999999999999 -0.2 0  -0.2 -0.2 0  0 -0.2 0  0.2000000000000002 -0.2 0  0.3999999999999999 -0.2 0  0.6000000000000001 -0.2 0  0.7999999999999998 -0.2 0  1 -0.2 0  1.2 -0.2 0  1.4 -0.2 0  1.6 -0.2 0  1.8 -0.2 0  2 -0.2 0  -2 0 0  -1.8 0 0  -1.6 0 0  -1.4 0 0  -1.2 0 0  -1 0 0  -0.8 0 0  -0.6000000000000001 0 0  -0.3999999999999999 0 0  -0.2 0 0  0 0 0  0.2000000000000002 0 0  0.3999999999999999 0 0  0.6000000000000001 0 0  0.7999999999999998 0 0  1 0 0  1.2 0 0  1.4 0 0  1.6 0 0  1.8 0 0  2 0 0  -2 0.2000000000000002 0  -1.8 0.2000000000000002 0  -1.6 0.2000000000000002 0  -1.4 0.2000000000000002 0  -1.2 0.2000000000000002 0  -1 0.2000000000000002 0  -0.8 0.2000000000000002 0  -0.6000000000000001 0.2000000000000002 0  -0.3999999999999999 0.2000000000000002 0  -0.2 0.2000000000000002 0  0 0.2000000000000002 0  0.2000000000000002 0.2000000000000002 0  0.3999999999999999 0.2000000000000002 0  0.6000000000000001 0.2000000000000002 0  0.7999999999999998 0.2000000000000002 0  1 0.2000000000000002 0  1.2 0.2000000000000002 0  1.4 0.2000000000000002 0  1.6 0.2000000000000002 0  1.8 0.2000000000000002 0  2 0.2000000000000002 0  -2 0.3999999999999999 0  -1.8 0.3999999999999999 0  -1.6 0.3999999999999999 0  -1.4 0.3999999999999999 0  -1.2 0.3999999999999999 0  -1 0.3999999999999999 0  -0.8 0.3999999999999999 0  -0.6000000000000001 0.3999999999999999 0  -0.3999999999999999 0.3999999999999999 0  -0.2 0.3999999999999999 0  0 0.3999999999999999 0  0.2000000000000002 0.3999999999999999 0  0.3999999999999999 0.3999999999999999 0  0.6000000000000001 0.3999999999999999 0  0.7999999999999998 0.3999999999999999 0  1 0.3999999999999999 0  1.2 0.3999999999999999 0  1.4 0.3999999999999999 0  1.6 0.3999999999999999 0  1.8 0.3999999999999999 0  2 0.3999999999999999 0  -2 0.6000000000000001 0  -1.8 0.6000000000000001 0  -1.6 0.6000000000000001 0  -1.4 0.6000000000000001 0  -1.2 0.6000000000000001 0  -1 0.6000000000000001 0  -0.8 0.6000000000000001 0  -0.6000000000000001 0.6000000000000001 0  -0.3999999999999999 0.6000000000000001 0  -0.2 0.6000000000000001 0  0 0.6000000000000001 0  0.2000000000000002 0.6000000000000001 0  0.3999999999999999 0.6000000000000001 0  0.6000000000000001 0.6000000000000001 0  0.7999999999999998 0.6000000000000001 0  1 0.6000000000000001 0  1.2 0.6000000000000001 0  1.4 0.6000000000000001 0  1.6 0.6000000000000001 0  1.8 0.6000000000000001 0  2 0.6000000000000001 0  -2 0.7999999999999998 0  -1.8 0.7999999999999998 0  -1.6 0.7999999999999998 0  -1.4 0.7999999999999998 0  -1.2 0.7999999999999998 0  -1 0.7999999999999998 0  -0.8 0.7999999999999998 0  -0.6000000000000001 0.7999999999999998 0  -0.3999999999999999 0.7999999999999998 0  -0.2 0.7999999999999998 0  0 0.7999999999999998 0  0.2000000000000002 0.7999999999999998 0  0.3999999999999999 0.7999999999999998 0  0.6000000000000001 0.7999999999999998 0  0.7999999999999998 0.7999999999999998 0  1 0.7999999999999998 0  1.2 0.7999999999999998 0  1.4 0.7999999999999998 0  1.6 0.7999999999999998 0  1.8 0.7999999999999998 0  2 0.7999999999999998 0  -2 1 0  -1.8 1 0  -1.6 1 0  -1.4 1 0  -1.2 1 0  -1 1 0  -0.8 1 0  -0.6000000000000001 1 0  -0.3999999999999999 1 0  -0.2 1 0  0 1 0  0.2000000000000002 1 0  0.3999999999999999 1 0  0.6000000000000001 1 0  0.7999999999999998 1 0  1 1 0  1.2 1 0  1.4 1 0  1.6 1 0  1.8 1 0  2 1 0  -2 1.2 0  -1.8 1.2 0  -1.6 1.2 0  -1.4 1.2 0  -1.2 1.2 0  -1 1.2 0  -0.8 1.2 0  -0.6000000000000001 1.2 0  -0.3999999999999999 1.2 0  -0.2 1.2 0  0 1.2 0  0.2000000000000002 1.2 0  0.3999999999999999 1.2 0  0.6000000000000001 1.2 0  0.7999999999999998 1.2 0  1 1.2 0  1.2 1.2 0  1.4 1.2 0  1.6 1.2 0  1.8 1.2 0  2 1.2 0  -2 1.4 0  -1.8 1.4 0  -1.6 1.4 0  -1.4 1.4 0  -1.2 1.4 0  -1 1.4 0  -0.8 1.4 0  -0.6000000000000001 1.4 0  -0.3999999999999999 1.4 0  -0.2 1.4 0  0 1.4 0  0.2000000000000002 1.4 0  0.3999999999999999 1.4 0  0.6000000000000001 1.4 0  0.7999999999999998 1.4 0  1 1.4 0  1.2 1.4 0  1.4 1.4 0  1.6 1.4 0  1.8 1.4 0  2 1.4 0  -2 1.6 0  -1.8 1.6 0  -1.6 1.6 0  -1.4 1.6 0  -1.2 1.6 0  -1 1.6 0  -0.8 1.6 0  -0.6000000000000001 1.6 0  -0.3999999999999999 1.6 0  -0.2 1.6 0  0 1.6 0  0.2000000000000002 1.6 0  0.3999999999999999 1.6 0  0.6000000000000001 1.6 0  0.7999999999999998 1.6 0  1 1.6 0  1.2 1.6 0  1.4 1.6 0  1.6 1.6 0  1.8 1.6 0  2 1.6 0  -2 1.8 0  -1.8 1.8 0  -1.6 1.8 0  -1.4 1.8 0  -1.2 1.8 0  -1 1.8 0  -0.8 1.8 0  -0.6000000000000001 1.8 0  -0.3999999999999999 1.8 0  -0.2 1.8 0  0 1.8 0  0.2000000000000002 1.8 0  0.3999999999999999 1.8 0  0.6000000000000001 1.8 0  0.7999999999999998 1.8 0  1 1.8 0  1.2 1.8 0  1.4 1.8 0  1.6 1.8 0  1.8 1.8 0  2 1.8 0  -2 2 0  -1.8 2 0  -1.6 2 0  -1.4 2 0  -1.2 2 0  -1 2 0  -0.8 2 0  -0.6000000000000001 2 0  -0.3999999999999999 2 0  -0.2 2 0  0 2 0  0.2000000000000002 2 0  0.3999999999999999 2 0  0.6000000000000001 2 0  0.7999999999999998 2 0  1 2 0  1.2 2 0  1.4 2 0  1.6 2 0  1.8 2 0  2 2 0  </DataArray>
</Points>
<Cells>
[...]
<PointData  Scalars="f_8"> 
<DataArray  type="Float64"  Name="f_8"  format="ascii">8.4667341923198702e-03  8.5086074748759993e-03  8.5274436903613818e-03  8.5385853899091931e-03  8.5464688528671812e-03  8.5526597467257322e-03  8.5578411090610710e-03  8.5623751868037640e-03  8.5664895119566091e-03  8.5703493350256718e-03  8.5740903722774358e-03  8.5778361858742675e-03  8.5817099967902301e-03  8.5858464858628789e-03  8.5904091308417665e-03  8.5956228476969238e-03  8.6018461700221420e-03  8.6097567974219736e-03  8.6209133592103967e-03  8.6397542389965963e-03  8.6817448557227079e-03  8.7617496841945978e-03  8.7730083572287055e-03  8.7842928942438846e-03  8.7932510233835869e-03  8.8003599916837184e-03  8.8062102616397377e-03  8.8112109521478622e-03  8.8156338785816812e-03  8.8196709090880860e-03  8.8234703712748771e-03  8.8271581453901408e-03  8.8308504881874101e-03  8.8346633586773304e-03  8.8387217463169049e-03  8.8431725088733825e-03  8.8482055225693208e-03  8.8540902930659571e-03  8.8612339449526765e-03  8.8702265741947787e-03  8.8815438765190852e-03  8.8927662804823681e-03  9.5372522314628103e-03  9.5411753176967203e-03  9.5475036327386312e-03  9.5538672167066151e-03  9.5596221463201854e-03  9.5647178101966029e-03  9.5692602799414359e-03  9.5733792041883242e-03  9.5771956556003433e-03  9.5808188817040271e-03  9.5843497488380495e-03  9.5878849340403499e-03  9.5915208321919951e-03  9.5953574677024901e-03  9.5995026999908147e-03  9.6040756843100601e-03  9.6092035933535800e-03  9.6149891153128747e-03  9.6213754873977434e-03  9.6277027012380625e-03  9.6315600803958921e-03  1.0807720787669537e-02  1.0809535665104163e-02  1.0813255412693703e-02  1.0817641649098968e-02  1.0822058501303461e-02  1.0826259633770464e-02  1.0830187005779802e-02  1.0833862462526423e-02  1.0837339132639862e-02  1.0840681635975407e-02  1.0843958498014070e-02  1.0847239275522589e-02  1.0850593223158005e-02  1.0854087955545232e-02  1.0857786548064473e-02  1.0861739861286248e-02  1.0865966474849229e-02  1.0870403350954466e-02  1.0874795765296711e-02  1.0878493638846028e-02  1.0880241152466762e-02  1.2579725644446461e-02  1.2580568391800367e-02  1.2582746502803973e-02  1.2585665505166365e-02  1.2588891038631344e-02  1.2592176163279475e-02  1.2595404697859719e-02  1.2598537055822857e-02  1.2601575245960225e-02  1.2604543066351320e-02  1.2607475187299485e-02  1.2610410667023940e-02  1.2613388229565462e-02  1.2616441535651494e-02  1.2619592664883687e-02  1.2622841098482695e-02  1.2626143675384118e-02  1.2629379147829464e-02  1.2632293488251869e-02  1.2634443566949413e-02  1.2635228486828567e-02  1.4856633333588011e-02  1.4856590188268105e-02  1.4857557990340806e-02  1.4859240168715157e-02  1.4861360444560198e-02  1.4863718139455320e-02  1.4866186625805671e-02  1.4868694614785585e-02  1.4871207682872844e-02  1.4873714367122358e-02  1.4876216324535594e-02  1.4878721022434526e-02  1.4881235576263741e-02  1.4883760592576116e-02  1.4886282868030256e-02  1.4888765542993135e-02  1.4891134163748692e-02  1.4893258192824419e-02  1.4894932522755882e-02  1.4895876964985467e-02  1.4895794083949412e-02  1.7636268258891006e-02  1.7635114240536841e-02  1.7634853243898921e-02  1.7635319486242210e-02  1.7636328252402186e-02  1.7637717533611125e-02  1.7639361553912214e-02  1.7641169275592689e-02  1.7643077489036606e-02  1.7645042986327044e-02  1.7647035239856359e-02  1.7649029708522147e-02  1.7651001505851964e-02  1.7652919097099328e-02  1.7654737690542772e-02  1.7656392055047619e-02  1.7657788896172075e-02  1.7658800261279708e-02  1.7659262595988098e-02  1.7658991224408276e-02  1.7657823260372334e-02  2.0906527596369042e-02  2.0903950251689517e-02  2.0902296884091731e-02  2.0901455494768049e-02  2.0901284065291188e-02  2.0901638705940702e-02  2.0902389463865752e-02  2.0903426223095635e-02  2.0904658572809952e-02  2.0906012466796183e-02  2.0907425273976137e-02  2.0908840056039782e-02  2.0910199550135403e-02  2.0911440208747335e-02  2.0912486649583607e-02  2.0913246995565581e-02  2.0913609945432971e-02  2.0913445182676880e-02  2.0912609947213202e-02  2.0910965588087509e-02  2.0908406276486952e-02  2.4640425998314751e-02  2.4636126671732528e-02  2.4632889731506354e-02  2.4630619456212560e-02  2.4629184525291434e-02  2.4628439113185831e-02  2.4628238753461536e-02  2.4628449685647775e-02  2.4628952555412087e-02  2.4629641914887007e-02  2.4630422882275529e-02  2.4631206087453995e-02  2.4631901847253987e-02  2.4632414424040190e-02  2.4632637223347336e-02  2.4632449877009487e-02  2.4631718331134107e-02  2.4630299263187935e-02  2.4628050187924227e-02  2.4624845951979495e-02  2.4620600056036862e-02  2.8791354735365760e-02  2.8785118546887551e-02  2.8780159941003428e-02  2.8776378720084025e-02  2.8773632658789232e-02  2.8771757246652745e-02  2.8770582770489016e-02  2.8769946061633678e-02  2.8769696471707705e-02  2.8769696880252233e-02  2.8769821008379028e-02  2.8769948375558387e-02  2.8769958161157749e-02  2.8769723167771863e-02  2.8769105088721415e-02  2.8767952350354828e-02  2.8766101858446452e-02  2.8763385866338285e-02  2.8759644627595345e-02  2.8754744153269042e-02  2.8748596088791670e-02  3.3289236998589579e-02  3.3280991694580979e-02  3.3274289985399955e-02  3.3269012900465814e-02  3.3264990773298669e-02  3.3262026481521226e-02  3.3259915864586931e-02  3.3258461899946669e-02  3.3257481968487448e-02  3.3256809153881205e-02  3.3256289141359703e-02  3.3255774341500011e-02  3.3255116732536928e-02  3.3254160809682638e-02  3.3252738042425817e-02  3.3250664361601873e-02  3.3247742317805543e-02  3.3243769433885045e-02  3.3238553538097911e-02  3.3231934098481061e-02  3.3223805721578084e-02  3.8038251768261880e-02  3.8028116336621273e-02  3.8019817832029630e-02  3.8013204811727402e-02  3.8008064473311079e-02  3.8004154603820776e-02  3.8001229681069816e-02  3.7999057449075092e-02  3.7997426245537730e-02  3.7996145116411008e-02  3.7995039049928972e-02  3.7993941338530526e-02  3.7992684668974555e-02  3.7991092304969290e-02  3.7988970750788456e-02  3.7986105559484701e-02  3.7982262366336575e-02  3.7977195502140786e-02  3.7970666101845539e-02  3.7962469623225151e-02  3.7952468473344624e-02  4.2916748321316964e-02  4.2905066432548530e-02  4.2895522619049095e-02  4.2887914155006639e-02  4.2881965827643614e-02  4.2877377670572869e-02  4.2873858765823947e-02  4.2871144958001255e-02  4.2869003869017631e-02  4.2867231659907641e-02  4.2865645105329933e-02  4.2864071320598565e-02  4.2862336563295550e-02  4.2860255087339455e-02  4.2857619065336923e-02  4.2854191110232726e-02  4.2849701895806301e-02  4.2843856596621169e-02  4.2836354617057967e-02  4.2826925662883451e-02  4.2815379072923355e-02  4.7779831803352393e-02  4.7767184659430063e-02  4.7756974294732323e-02  4.7748913346635696e-02  4.7742635236351236e-02  4.7737767964087977e-02  4.7733975487518239e-02  4.7730972045393130e-02  4.7728520165327484e-02  4.7726420852686434e-02  4.7724500865666729e-02  4.7722599279520259e-02  4.7720554006330088e-02  4.7718188300313887e-02  4.7715297326279299e-02  4.7711635605053565e-02  4.7706907795155143e-02  4.7700768070113725e-02  4.7692836929507106e-02  4.7682746136328509e-02  4.7670215964965075e-02  5.2464848844158529e-02  5.2452046283356708e-02  5.2441985275492244e-02  5.2434226174326748e-02  5.2428263438926113e-02  5.2423637596971648e-02  5.2419976106253943e-02  5.2416992617040838e-02  5.2414469630151797e-02  5.2412237908083165e-02  5.2410157685148395e-02  5.2408102434534351e-02  5.2405944152804175e-02  5.2403538545602230e-02  5.2400708542477255e-02  5.2397225248760705e-02  5.2392787395784950e-02  5.2387004891121990e-02  5.2379400696433334e-02  5.2369456877088771e-02  5.2356733589913801e-02  5.6799646917802607e-02  5.6787708422288009e-02  5.6778863312958894e-02  5.6772373511521736e-02  5.6767518147775094e-02  5.6763741619214922e-02  5.6760662026260560e-02  5.6758030486912713e-02  5.6755686166927194e-02  5.6753521139038095e-02  5.6751455957306705e-02  5.6749422737803479e-02  5.6747351848355138e-02  5.6745158423226139e-02  5.6742724940592723e-02  5.6739876044958809e-02  5.6736342614150954e-02  5.6731716521150374e-02  5.6725411614947395e-02  5.6716678476404277e-02  5.6704765781529366e-02  6.0613047831773341e-02  6.0603222574642644e-02  6.0596970682951098e-02  6.0592935453653372e-02  6.0590080471678937e-02  6.0587782694799926e-02  6.0585718223138192e-02  6.0583739554836473e-02  6.0581791567680149e-02  6.0579862927738481e-02  6.0577960559909917e-02  6.0576096835103600e-02  6.0574282171767392e-02  6.0572517431574581e-02  6.0570780480967736e-02  6.0568999575745838e-02  6.0567003141529296e-02  6.0564433647419355e-02  6.0560623414805434e-02  6.0554484494519903e-02  6.0544623186507732e-02  6.3746483261034270e-02  6.3740490619625320e-02  6.3738722447306065e-02  6.3738551072917454e-02  6.3738594082693237e-02  6.3738312694333291e-02  6.3737584667824310e-02  6.3736459894819034e-02  6.3735045389080161e-02  6.3733458091707357e-02  6.3731809669007253e-02  6.3730205462545181e-02  6.3728748696640261e-02  6.3727544520513713e-02  6.3726698450399757e-02  6.3726300217108053e-02  6.3726374783101350e-02  6.3726763701317385e-02  6.3726873841694898e-02  6.3725242819787919e-02  6.3719156168436430e-02  6.6065083985910766e-02  6.6066304968188327e-02  6.6071923561762627e-02  6.6077171281555630e-02  6.6080793517284922e-02  6.6082787867703233e-02  6.6083482946981742e-02  6.6083239389262721e-02  6.6082371273731205e-02  6.6081138049564198e-02  6.6079757602633779e-02  6.6078425194301418e-02  6.6077333764646806e-02  6.6076694157142568e-02  6.6076753861504106e-02  6.6077809820593178e-02  6.6080199804193301e-02  6.6084221521246725e-02  6.6089824087724541e-02  6.6095656225689858e-02  6.6096756552626215e-02  6.7464951841701204e-02  6.7483812993153050e-02  6.7501403357978954e-02  6.7513192857601906e-02  6.7520357359818151e-02  6.7524335190845122e-02  6.7526178649925536e-02  6.7526615908215945e-02  6.7526161232471973e-02  6.7525194463546587e-02  6.7524015755257114e-02  6.7522886917088687e-02  6.7522067135043023e-02  6.7521848664724188e-02  6.7522598191799205e-02  6.7524811947831082e-02  6.7529196478954015e-02  6.7536781703124146e-02  6.7548985343055312e-02  6.7566940426350350e-02  6.7585790954646258e-02  6.7867052978010073e-02  6.7946002328589286e-02  6.7979208892621296e-02  6.7995879979488166e-02  6.8004933379428381e-02  6.8009791236181866e-02  6.8012098996596645e-02  6.8012799206557312e-02  6.8012500638402709e-02  6.8011633325181356e-02  6.8010529345045881e-02  6.8009475356011914e-02  6.8008755064701845e-02  6.8008691638171206e-02  6.8009700147471153e-02  6.8012368459337780e-02  6.8017612987576956e-02  6.8027050153219540e-02  6.8044079085352205e-02  6.8077648734157017e-02  6.8157360005907441e-02  </DataArray> 
</PointData> 
</Piece>
</UnstructuredGrid>
</VTKFile>