<?xml version="1.0"?>
<VTKFile type="UnstructuredGrid"  version="0.1"  >
<UnstructuredGrid>
<Piece  NumberOfPoints="441" NumberOfCells="800">
<Points>
<DataArray  type="Float64"  NumberOfComponents="3"  format="ascii">-2 -2 0  -1.8 -2 0  -1.6 -2 0  -1.4 -2 0  -1.2 -2 0  -1 -2 0  -0.8 -2 0  -0.6000000000000001 -2 0  -0.3999999999999999 -2 0  -0.2 -2 0  0 -2 0  0.2000000000000002 -2 0  0.3999999999999999 -2 0  0.6000000000000001 -2 0  0.7999999999999998 -2 0  1 -2 0  1.2 -2 0  1.4 -2 0  1.6 -2 0  1.8 -2 0  2 -2 0  -2 -1.8 0  -1.8 -1.8 0  -1.6 -1.8 0  -1.4 -1.8 0  -1.2 -1.8 0  -1 -1.8 0  -0.8 -1.8 0  -0.6000000000000001 -1.8 0  -0.3999999999999999 -1.8 0  -0.2 -1.8 0  0 -1.8 0  0.2000000000000002 -1.8 0  0.3999999999999999 -1.8 0  0.6000000000000001 -1.8 0  0.7999999999999998 -1.8 0  1 -1.8 0  1.2 -1.8 0  1.4 -1.8 0  1.6 -1.8 0  1.8 -1.8 0  2 -1.8 0  -2 -1.6 0  -1.8 -1.6 0  -1.6 -1.6 0  -1.4 -1.6 0  -1.2 -1.6 0  -1 -1.6 0  -0.8 -1.6 0  -0.6000000000000001 -1.6 0  -0.3999999999999999 -1.6 0  -0.2 -1.6 0  0 -1.6 0  0.2000000000000002 -1.6 0  0.3999999999999999 -1.6 0  0.6000000000000001 -1.6 0  0.7999999999999998 -1.6 0  1 -1.6 0  1.2 -1.6 0  1.4 -1.6 0  1.6 -1.6 0  1.8 -1.6 0  2 -1.6 0  -2 -1.4 0  -1.8 -1.4 0  -1.6 -1.4 0  -1.4 -1.4 0  -1.2 -1.4 0  -1 -1.4 0  -0.8 -1.4 0  -0.6000000000000001 -1.4 0  -0.3999999999999999 -1.4 0  -0.2 -1.4 0  0 -1.4 0  0.2000000000000002 -1.4 0  0.3999999999999999 -1.4 0  0.6000000000000001 -1.4 0  0.7999999999999998 -1.4 0  1 -1.4 0  1.2 -1.4 0  1.4 -1.4 0  1.6 -1.4 0  1.8 -1.4 0  2 -1.4 0  -2 -1.2 0  -1.8 -1.2 0  -1.6 -1.2 0  -1.4 -1.2 0  -1.2 -1.2 0  -1 -1.2 0  -0.8 -1.2 0  -0.6000000000000001 -1.2 0  -0.3999999999999999 -1.2 0  -0.2 -1.2 0  0 -1.2 0  0.2000000000000002 -1.2 0  0.3999999999999999 -1.2 0  0.6000000000000001 -1.2 0  0.7999999999999998 -1.2 0  1 -1.2 0  1.2 -1.2 0  1.4 -1.2 0  1.6 -1.2 0  1.8 -1.2 0  2 -1.2 0  -2 -1 0  -1.8 -1 0  -1.6 -1 0  -1.4 -1 0  -1.2 -1 0  -1 -1 0  -0.8 -1 0  -0.6000000000000001 -1 0  -0.3999999999999999 -1 0  -0.2 -1 0  0 -1 0  0.2000000000000002 -1 0  0.3999999999999999 -1 0  0.6000000000000001 -1 0  0.7999999999999998 -1 0  1 -1 0  1.2 -1 0  1.4 -1 0  1.6 -1 0  1.8 -1 0  2 -1 0  -2 -0.8 0  -1.8 -0.8 0  -1.6 -0.8 0  -1.4 -0.8 0  -1.2 -0.8 0  -1 -0.8 0  -0.8 -0.8 0  -0.6000000000000001 -0.8 0  -0.3999999999999999 -0.8 0  -0.2 -0.8 0  0 -0.8 0  0.2000000000000002 -0.8 0  0.3999999999999999 -0.8 0  0.6000000000000001 -0.8 0  0.7999999999999998 -0.8 0  1 -0.8 0  1.2 -0.8 0  1.4 -0.8 0  1.6 -0.8 0  1.8 -0.8 0  2 -0.8 0  -2 -0.6000000000000001 0  -1.8 -0.6000000000000001 0  -1.6 -0.6000000000000001 0  -1.4 -0.6000000000000001 0  -1.2 -0.6000000000000001 0  -1 -0.6000000000000001 0  -0.8 -0.6000000000000001 0  -0.6000000000000001 -0.6000000000000001 0  -0.3999999999999999 -0.6000000000000001 0  -0.2 -0.6000000000000001 0  0 -0.6000000000000001 0  0.2000000000000002 -0.6000000000000001 0  0.3999999999999999 -0.6000000000000001 0  0.6000000000000001 -0.6000000000000001 0  0.7999999999999998 -0.6000000000000001 0  1 -0.6000000000000001 0  1.2 -0.6000000000000001 0  1.4 -0.6000000000000001 0  1.6 -0.6000000000000001 0  1.8 -0.6000000000000001 0  2 -0.6000000000000001 0  -2 -0.3999999999999999 0  -1.8 -0.3999999999999999 0  -1.6 -0.3999999999999999 0  -1.4 -0.3999999999999999 0  -1.2 -0.3999999999999999 0  -1 -0.3999999999999999 0  -0.8 -0.3999999999999999 0  -0.6000000000000001 -0.3999999999999999 0  -0.3999999999999999 -0.3999999999999999 0  -0.2 -0.3999999999999999 0  0 -0.3999999999999999 0  0.2000000000000002 -0.3999999999999999 0  0.3999999999999999 -0.3999999999999999 0  0.6000000000000001 -0.3999999999999999 0  0.7999999999999998 -0.3999999999999999 0  1 -0.3999999999999999 0  1.2 -0.3999999999999999 0  1.4 -0.3999999999999999 0  1.6 -0.3999999999999999 0  1.8 -0.3999999999999999 0  2 -0.3999999999999999 0  -2 -0.2 0  -1.8 -0.2 0  -1.6 -0.2 0  -1.4 -0.2 0  -1.2 -0.2 0  -1 -0.2 0  -0.8 -0.2 0  -0.6000000000000001 -0.2 0  -0.3999999999999999 -0.2 0  -0.2 -0.2 0  0 -0.2 0  0.2000000000000002 -0.2 0  0.3999999999999999 -0.2 0  0.6000000000000001 -0.2 0  0.7999999999999998 -0.2 0  1 -0.2 0  1.2 -0.2 0  1.4 -0.2 0  1.6 -0.2 0  1.8 -0.2 0  2 -0.2 0  -2 0 0  -1.8 0 0  -1.6 0 0  -1.4 0 0  -1.2 0 0  -1 0 0  -0.8 0 0  -0.6000000000000001 0 0  -0.3999999999999999 0 0  -0.2 0 0  0 0 0  0.2000000000000002 0 0  0.3999999999999999 0 0  0.6000000000000001 0 0  0.7999999999999998 0 0  1 0 0  1.2 0 0  1.4 0 0  1.6 0 0  1.8 0 0  2 0 0  -2 0.2000000000000002 0  -1.8 0.2000000000000002 0  -1.6 0.2000000000000002 0  -1.4 0.2000000000000002 0  -1.2 0.2000000000000002 0  -1 0.2000000000000002 0  -0.8 0.2000000000000002 0  -0.6000000000000001 0.2000000000000002 0  -0.3999999999999999 0.2000000000000002 0  -0.2 0.2000000000000002 0  0 0.2000000000000002 0  0.2000000000000002 0.2000000000000002 0  0.3999999999999999 0.2000000000000002 0  0.6000000000000001 0.2000000000000002 0  0.7999999999999998 0.2000000000000002 0  1 0.2000000000000002 0  1.2 0.2000000000000002 0  1.4 0.2000000000000002 0  1.6 0.2000000000000002 0  1.8 0.2000000000000002 0  2 0.2000000000000002 0  -2 0.3999999999999999 0  -1.8 0.3999999999999999 0  -1.6 0.3999999999999999 0  -1.4 0.3999999999999999 0  -1.2 0.3999999999999999 0  -1 0.3999999999999999 0  -0.8 0.3999999999999999 0  -0.6000000000000001 0.3999999999999999 0  -0.3999999999999999 0.3999999999999999 0  -0.2 0.3999999999999999 0  0 0.3999999999999999 0  0.2000000000000002 0.3999999999999999 0  0.3999999999999999 0.3999999999999999 0  0.6000000000000001 0.3999999999999999 0  0.7999999999999998 0.3999999999999999 0  1 0.3999999999999999 0  1.2 0.3999999999999999 0  1.4 0.3999999999999999 0  1.6 0.3999999999999999 0  1.8 0.3999999999999999 0  2 0.3999999999999999 0  -2 0.6000000000000001 0  -1.8 0.6000000000000001 0  -1.6 0.6000000000000001 0  -1.4 0.6000000000000001 0  -1.2 0.6000000000000001 0  -1 0.6000000000000001 0  -0.8 0.6000000000000001 0  -0.6000000000000001 0.6000000000000001 0  -0.3999999999999999 0.6000000000000001 0  -0.2 0.6000000000000001 0  0 0.6000000000000001 0  0.2000000000000002 0.6000000000000001 0  0.3999999999999999 0.6000000000000001 0  0.6000000000000001 0.6000000000000001 0  0.7999999999999998 0.6000000000000001 0  1 0.6000000000000001 0  1.2 0.6000000000000001 0  1.4 0.6000000000000001 0  1.6 0.6000000000000001 0  1.8 0.6000000000000001 0  2 0.6000000000000001 0  -2 0.7999999999999998 0  -1.8 0.7999999999999998 0  -1.6 0.7999999999999998 0  -1.4 0.7999999999999998 0  -1.2 0.7999999999999998 0  -1 0.7999999999999998 0  -0.8 0.7999999999999998 0  -0.6000000000000001 0.7999999999999998 0  -0.3999999999999999 0.7999999999999998 0  -0.2 0.7999999999999998 0  0 0.7999999999999998 0  0.2000000000000002 0.7999999999999998 0  0.3999999999999999 0.7999999999999998 0  0.6000000000000001 0.7999999999999998 0  0.7999999999999998 0.7999999999999998 0  1 0.7999999999999998 0  1.2 0.7999999999999998 0  1.4 0.7999999999999998 0  1.6 0.7999999999999998 0  1.8 0.7999999999999998 0  2 0.7999999999999998 0  -2 1 0  -1.8 1 0  -1.6 1 0  -1.4 1 0  -1.2 1 0  -1 1 0  -0.8 1 0  -0.6000000000000001 1 0  -0.3999999999999999 1 0  -0.2 1 0  0 1 0  0.2000000000000002 1 0  0.3999999999999999 1 0  0.6000000000000001 1 0  0.7999999999999998 1 0  1 1 0  1.2 1 0  1.4 1 0  1.6 1 0  1.8 1 0  2 1 0  -2 1.2 0  -1.8 1.2 0  -1.6 1.2 0  -1.4 1.2 0  -1.2 1.2 0  -1 1.2 0  -0.8 1.2 0  -0.6000000000000001 1.2 0  -0.3999999999999999 1.2 0  -0.2 1.2 0  0 1.2 0  0.2000000000000002 1.2 0  0.3999999999999999 1.2 0  0.6000000000000001 1.2 0  0.7999999999999998 1.2 0  1 1.2 0  1.2 1.2 0  1.4 1.2 0  1.6 1.2 0  1.8 1.2 0  2 1.2 0  -2 1.4 0  -1.8 1.4 0  -1.6 1.4 0  -1.4 1.4 0  -1.2 1.4 0  -1 1.4 0  -0.8 1.4 0  -0.6000000000000001 1.4 0  -0.3999999999999999 1.4 0  -0.2 1.4 0  0 1.4 0  0.2000000000000002 1.4 0  0.3999999999999999 1.4 0  0.6000000000000001 1.4 0  0.7999999999999998 1.4 0  1 1.4 0  1.2 1.4 0  1.4 1.4 0  1.6 1.4 0  1.8 1.4 0  2 1.4 0  -2 1.6 0  -1.8 1.6 0  -1.6 1.6 0  -1.4 1.6 0  -1.2 1.6 0  -1 1.6 0  -0.8 1.6 0  -0.6000000000000001 1.6 0  -0.3999999999999999 1.6 0  -0.2 1.6 0  0 1.6 0  0.2000000000000002 1.6 0  0.3999999999999999 1.6 0  0.6000000000000001 1.6 0  0.7999999999999998 1.6 0  1 1.6 0  1.2 1.6 0  1.4 1.6 0  1.6 1.6 0  1.8 1.6 0  2 1.6 0  -2 1.8 0  -1.8 1.8 0  -1.6 1.8 0  -1.4 1.8 0  -1.2 1.8 0  -1 1.8 0  -0.8 1.8 0  -0.6000000000000001 1.8 0  -0.3999999999999999 1.8 0  -0.2 1.8 0  0 1.8 0  0.2000000000000002 1.8 0  0.3999999999999999 1.8 0  0.6000000000000001 1.8 0  0.7999999999999998 1.8 0  1 1.8 0  1.2 1.8 0  1.4 1.8 0  1.6 1.8 0  1.8 1.8 0  2 1.8 0  -2 2 0  -1.8 2 0  -1.6 2 0  -1.4 2 0  -1.2 2 0  -1 2 0  -0.8 2 0  -0.6000000000000001 2 0  -0.3999999999999999 2 0  -0.2 2 0  0 2 0  0.2000000000000002 2 0  0.3999999999999999 2 0  0.6000000000000001 2 0  0.7999999999999998 2 0  1 2 0  1.2 2 0  1.4 2 0  1.6 2 0  1.8 2 0  2 2 0  </DataArray>
</Points>
<Cells>
[...]
<PointData  Scalars="f_8"> 
<DataArray  type="Float64"  Name="f_8"  format="ascii">1.6611570899032863e-01  1.5506966204871828e-01  1.3075664577621304e-01  9.9922035538448986e-02  6.9507671108691008e-02  4.4242810769157495e-02  2.5919709896568235e-02  1.4065537756907874e-02  7.1182320421687316e-03  3.3837764160803709e-03  1.5224349015607141e-03  6.5350295876847578e-04  2.6986910868354182e-04  1.0814374057911820e-04  4.2419772789595853e-05  1.6425831258193805e-05  6.3302016429067426e-06  2.4519573553768763e-06  9.7856098240087461e-07  4.4534423418445158e-07  3.1353921198269923e-07  1.6360005855977650e-01  1.5502792095848977e-01  1.3214687496543917e-01  1.0158631953309510e-01  7.0630526610950012e-02  4.4552937756732060e-02  2.5575513381945799e-02  1.3396370631029445e-02  6.4129178047184175e-03  2.8041281922192040e-03  1.1146963594715058e-03  3.9735270164888159e-04  1.2248142708648634e-04  2.9100251316782031e-05  2.3810106778657899e-06  -2.9376853187418596e-06  -2.6959576385204505e-06  -1.6487657240772159e-06  -8.8423576598422843e-07  -4.8638341363014623e-07  -3.7221691509739435e-07  1.6370039158294583e-01  1.5527293994952132e-01  1.3256031962234119e-01  1.0197361328299701e-01  7.0801784058725781e-02  4.4458608671916061e-02  2.5300474861591038e-02  1.3072439519387474e-02  6.1395525805106330e-03  2.6207317871948898e-03  1.0145730912095488e-03  3.5434505395766651e-04  1.1056431180669478e-04  3.0381176082907789e-05  7.2954385365930405e-06  1.6584074483960595e-06  5.3629917390822454e-07  3.3172033319581850e-07  2.5276770862167258e-07  1.9725475636767815e-07  1.8388675277829491e-07  1.6377093070664284e-01  1.5534993683077553e-01  1.3263639335747823e-01  1.0201931805483090e-01  7.0793298843744273e-02  4.4402063549732626e-02  2.5227076629935168e-02  1.3014647628615855e-02  6.1127014315268662e-03  2.6215031207447509e-03  1.0304907848041884e-03  3.7353940723749946e-04  1.2625764310360965e-04  4.0647509198168730e-05  1.2929884941131502e-05  4.2621044388751972e-06  1.5008608291526607e-06  5.5262895690454205e-07  1.9765020720264862e-07  6.2686188865444985e-08  2.5369154796998813e-08  1.6377388923256586e-01  1.5535211841880864e-01  1.3263659997757288e-01  1.0201551216561000e-01  7.0785471369196148e-02  4.4394119581953141e-02  2.5224415915137410e-02  1.3019805380777799e-02  6.1236311553832332e-03  2.6336344841899778e-03  1.0399537932402204e-03  3.7885742049975884e-04  1.2803017493479642e-04  4.0331803884981528e-05  1.1840871867998635e-05  3.1791852384803422e-06  7.1875985537916230e-07  8.6001943611433429e-08  -4.3259004733068739e-08  -5.3071306482187869e-08  -5.1249192172988658e-08  1.6377296940661126e-01  1.5535101667820703e-01  1.3263541812832547e-01  1.0201443708470506e-01  7.0784899487608216e-02  4.4394547777669741e-02  2.5225965669822652e-02  1.3021881272364286e-02  6.1252193221312734e-03  2.6340066160970826e-03  1.0390993764371776e-03  3.7733323470118518e-04  1.2649801986220301e-04  3.9205115028311158e-05  1.1211938947565246e-05  2.9365200855603886e-06  6.9562753103649228e-07  1.5052036729645492e-07  3.6547933192665227e-08  1.8268546896224297e-08  1.7906918268840551e-08  1.6377301969253577e-01  1.5535108234109662e-01  1.3263550005374022e-01  1.0201453879223950e-01  7.0785023490185214e-02  4.4394669052755464e-02  2.5226003795487704e-02  1.3021731011781485e-02  6.1248434990063263e-03  2.6334989924496435e-03  1.0386386178187004e-03  3.7706670450755094e-04  1.2646145523930271e-04  3.9331996242481258e-05  1.1399159196342473e-05  3.1040768531953599e-06  8.0843930324724608e-07  2.0894201609777399e-07  5.6721713201147205e-08  1.7460812419358670e-08  9.4732030668313827e-09  1.6377302747704961e-01  1.5535109192126959e-01  1.3263551050607802e-01  1.0201454792064459e-01  7.0785027785593757e-02  4.4394663876268739e-02  2.5225986420385951e-02  1.3021707784359769e-02  6.1248338155396520e-03  2.6335261437312077e-03  1.0387112485840432e-03  3.7716861409508868e-04  1.2656080188894699e-04  3.9401297809883482e-05  1.1428918275452208e-05  3.1021320887256708e-06  7.9021891155521809e-07  1.8791553740518169e-07  4.0017425236762160e-08  6.0247407045778734e-09  -2.1505227322482625e-10  1.6377302578287667e-01  1.5535108969838182e-01  1.3263550792596959e-01  1.0201454535123521e-01  7.0785025733049664e-02  4.4394662997323135e-02  2.5225987668208084e-02  1.3021712311594137e-02  6.1248419586563642e-03  2.6335358300416402e-03  1.0387177607487890e-03  3.7716705708940111e-04  1.2654963999212567e-04  3.9383705071674594e-05  1.1410725503350282e-05  3.0883395123275056e-06  7.8283524263100671e-07  1.8612514522990333e-07  4.1746705391588644e-08  9.4762460424010935e-09  4.0913044643706389e-09  1.6377302582102857e-01  1.5535108978572765e-01  1.3263550802663410e-01  1.0201454541000292e-01  7.0785025688445857e-02  4.4394662789530144e-02  2.5225987227373296e-02  1.3021711508461561e-02  6.1248405547506997e-03  2.6335335657141704e-03  1.0387146623841703e-03  3.7716373761221270e-04  1.2654718470051765e-04  3.9383068432649398e-05  1.1412105074894534e-05  3.0910640550083184e-06  7.8581660342776026e-07  1.8845750275524176e-07  4.3040291119828325e-08  9.8550546922789279e-09  4.0797493668026963e-09  1.6377302586753070e-01  1.5535108982692553e-01  1.3263550806862209e-01  1.0201454545713380e-01  7.0785025745830177e-02  4.4394662865017434e-02  2.5225987331175842e-02  1.3021711652456882e-02  6.1248407586308581e-03  2.6335338717641014e-03  1.0387151382292850e-03  3.7716443542119192e-04  1.2654806586445881e-04  3.9383964716910373e-05  1.1412780124567651e-05  3.0913456187253300e-06  7.8569375266311091e-07  1.8806716541165955e-07  4.2562499808474093e-08  9.3939980662890075e-09  3.5950091346144767e-09  1.6377302581335146e-01  1.5535108981720450e-01  1.3263550812052061e-01  1.0201454558270601e-01  7.0785025934845064e-02  4.4394663081965297e-02  2.5225987528934974e-02  1.3021711793005583e-02  6.1248408268487391e-03  2.6335338742794548e-03  1.0387150896999414e-03  3.7716434326385200e-04  1.2654792660509305e-04  3.9383776573864396e-05  1.1412560614696459e-05  3.0911354683431820e-06  7.8554035341289414e-07  1.8800102047763667e-07  4.2586374538309596e-08  9.4902550129102011e-09  3.7356582936968736e-09  1.6377302635605376e-01  1.5535108996089206e-01  1.3263550774146599e-01  1.0201454472213664e-01  7.0785024806185259e-02  4.4394661990008480e-02  2.5225986735665708e-02  1.3021711413292546e-02  6.1248408134211459e-03  2.6335340829134837e-03  1.0387153674672549e-03  3.7716458744445542e-04  1.2654809823286250e-04  3.9383882703519686e-05  1.1412627132487641e-05  3.0911854794668910e-06  7.8558412905328289e-07  1.8803693082256642e-07  4.2608302940529182e-08  9.4962473362282912e-09  3.7349222576480053e-09  1.6377302430280152e-01  1.5535109008142245e-01  1.3263551051428574e-01  1.0201454921732053e-01  7.0785029278552694e-02  4.4394664799908549e-02  2.5225987127170165e-02  1.3021709711622311e-02  6.1248380216384268e-03  2.6335312541463140e-03  1.0387131677820041e-03  3.7716320679315814e-04  1.2654740411500217e-04  3.9383628132089581e-05  1.1412591762502256e-05  3.0912272844727774e-06  7.8563346671012987e-07  1.8807061693384501e-07  4.2625462758716701e-08  9.5025251364980557e-09  3.7344881072054932e-09  1.6377299912506449e-01  1.5535106408129476e-01  1.3263548429426475e-01  1.0201452946322839e-01  7.0785023221083085e-02  4.4394674954037261e-02  2.5226009579678840e-02  1.3021736608942505e-02  6.1248618750245351e-03  2.6335479523766727e-03  1.0387223531660946e-03  3.7716680720045466e-04  1.2654786915866016e-04  3.9382850537286946e-05  1.1411631060364810e-05  3.0904953674977252e-06  7.8518921662819962e-07  1.8784160813329911e-07  4.2522713452842032e-08  9.4600287181710579e-09  3.7126131295635697e-09  1.6377339677080219e-01  1.5535136882392719e-01  1.3263566264667889e-01  1.0201456154621880e-01  7.0784922313415669e-02  4.4394491423889397e-02  2.5225811154956607e-02  1.3021578482397940e-02  6.1247678149564892e-03  2.6335118582670584e-03  1.0387230367556173e-03  3.7718293724135299e-04  1.2656556924263955e-04  3.9396185334191868e-05  1.1419759727862975e-05  3.0946932166819421e-06  7.8702978536527723e-07  1.8849056446045785e-07  4.2659611399727756e-08  9.4213495676090575e-09  3.6474039586619616e-09  1.6377181126063073e-01  1.5535034865035033e-01  1.3263554101823963e-01  1.0201525145861330e-01  7.0786029849528795e-02  4.4395534638912035e-02  2.5226452341196887e-02  1.3021740544263831e-02  6.1245837002241411e-03  2.6331843840804469e-03  1.0384092704212133e-03  3.7695506889483054e-04  1.2642974852069091e-04  3.9328286180903086e-05  1.1391764231686286e-05  3.0860654403145313e-06  7.8605979946664564e-07  1.8974522842596786e-07  4.4141880518411031e-08  1.0644065275079148e-08  4.6175820742304333e-09  1.6375777871623984e-01  1.5533791397811958e-01  1.3262523177120425e-01  1.0200794438332465e-01  7.0782826416209879e-02  4.4396689999816275e-02  2.5230765453114496e-02  1.3027171643487597e-02  6.1293768430165192e-03  2.6365073428833582e-03  1.0402731199231903e-03  3.7778463493192614e-04  1.2668735173309724e-04  3.9340335709327605e-05  1.1332908517106152e-05  3.0274231732582478e-06  7.4608416602433938e-07  1.6682513961241172e-07  3.2091848548767644e-08  4.1005678943565257e-09  5.8875145780450585e-11  1.6381694802865818e-01  1.5539017476765743e-01  1.3265396483043176e-01  1.0199899163786097e-01  7.0740544315913229e-02  4.4341161839638453e-02  2.5182826112851005e-02  1.2997253494755516e-02  6.1167923341563651e-03  2.6350149565887841e-03  1.0435276566417686e-03  3.8179278429253803e-04  1.2979356283716442e-04  4.1281819987144157e-05  1.2385597614902108e-05  3.5388023040613368e-06  9.7202482912287921e-07  2.5781554042499792e-07  6.5133366805066113e-08  1.5274935032570394e-08  6.2190752641701831e-09  1.6407508892456768e-01  1.5576534482458576e-01  1.3308372079519715e-01  1.0229948276720932e-01  7.0795305142545839e-02  4.4170361321198844e-02  2.4895548774759812e-02  1.2707196769624245e-02  5.8906699970734345e-03  2.4883278688521320e-03  9.6163558014652464e-04  3.4180065192161382e-04  1.1264489900871673e-04  3.4910077580898306e-05  1.0441894448075688e-05  3.1533701616215742e-06  1.0232376373131712e-06  3.7650283711399786e-07  1.6105607399854526e-07  8.3893264935244295e-08  5.8853283507003560e-08  1.6163625891085015e-01  1.5574948103590108e-01  1.3454385331070129e-01  1.0407622486189810e-01  7.2005488745706989e-02  4.4489735754825371e-02  2.4488481202868145e-02  1.1949368190355122e-02  5.1151270869721098e-03  1.8748910330433216e-03  5.5104803154359537e-04  9.9113663439731657e-05  -1.7463810235960859e-05  -2.9636000511598856e-05  -1.9685110771030893e-05  -1.0270952070718832e-05  -4.7628546384538205e-06  -2.0682244331558210e-06  -8.7540146611529795e-07  -3.9509465193608365e-07  -2.5933478043365907e-07  </DataArray> 
</PointData> 
</Piece>
</UnstructuredGrid>
</VTKFile>