<?xml version="1.0"?>
<VTKFile type="UnstructuredGrid"  version="0.1"  >
<UnstructuredGrid>
<Piece  NumberOfPoints="441" NumberOfCells="800">
<Points>
<DataArray  type="Float64"  NumberOfComponents="3"  format="ascii">-2 -2 0  -1.8 -2 0  -1.6 -2 0  -1.4 -2 0  -1.2 -2 0  -1 -2 0  -0.8 -2 0  -0.6000000000000001 -2 0  -0.3999999999999999 -2 0  -0.2 -2 0  0 -2 0  0.2000000000000002 -2 0  0.3999999999999999 -2 0  0.6000000000000001 -2 0  0.7999999999999998 -2 0  1 -2 0  1.2 -2 0  1.4 -2 0  1.6 -2 0  1.8 -2 0  2 -2 0  -2 -1.8 0  -1.8 -1.8 0  -1.6 -1.8 0  -1.4 -1.8 0  -1.2 -1.8 0  -1 -1.8 0  -0.8 -1.8 0  -0.6000000000000001 -1.8 0  -0.3999999999999999 -1.8 0  -0.2 -1.8 0  0 -1.8 0  0.2000000000000002 -1.8 0  0.3999999999999999 -1.8 0  0.6000000000000001 -1.8 0  0.7999999999999998 -1.8 0  1 -1.8 0  1.2 -1.8 0  1.4 -1.8 0  1.6 -1.8 0  1.8 -1.8 0  2 -1.8 0  -2 -1.6 0  -1.8 -1.6 0  -1.6 -1.6 0  -1.4 -1.6 0  -1.2 -1.6 0  -1 -1.6 0  -0.8 -1.6 0  -0.6000000000000001 -1.6 0  -0.3999999999999999 -1.6 0  -0.2 -1.6 0  0 -1.6 0  0.2000000000000002 -1.6 0  0.3999999999999999 -1.6 0  0.6000000000000001 -1.6 0  0.7999999999999998 -1.6 0  1 -1.6 0  1.2 -1.6 0  1.4 -1.6 0  1.6 -1.6 0  1.8 -1.6 0  2 -1.6 0  -2 -1.4 0  -1.8 -1.4 0  -1.6 -1.4 0  -1.4 -1.4 0  -1.2 -1.4 0  -1 -1.4 0  -0.8 -1.4 0  -0.6000000000000001 -1.4 0  -0.3999999999999999 -1.4 0  -0.2 -1.4 0  0 -1.4 0  0.2000000000000002 -1.4 0  0.3999999999999999 -1.4 0  0.6000000000000001 -1.4 0  0.7999999999999998 -1.4 0  1 -1.4 0  1.2 -1.4 0  1.4 -1.4 0  1.6 -1.4 0  1.8 -1.4 0  2 -1.4 0  -2 -1.2 0  -1.8 -1.2 0  -1.6 -1.2 0  -1.4 -1.2 0  -1.2 -1.2 0  -1 -1.2 0  -0.8 -1.2 0  -0.6000000000000001 -1.2 0  -0.3999999999999999 -1.2 0  -0.2 -1.2 0  0 -1.2 0  0.2000000000000002 -1.2 0  0.3999999999999999 -1.2 0  0.6000000000000001 -1.2 0  0.7999999999999998 -1.2 0  1 -1.2 0  1.2 -1.2 0  1.4 -1.2 0  1.6 -1.2 0  1.8 -1.2 0  2 -1.2 0  -2 -1 0  -1.8 -1 0  -1.6 -1 0  -1.4 -1 0  -1.2 -1 0  -1 -1 0  -0.8 -1 0  -0.6000000000000001 -1 0  -0.3999999999999999 -1 0  -0.2 -1 0  0 -1 0  0.2000000000000002 -1 0  0.3999999999999999 -1 0  0.6000000000000001 -1 0  0.7999999999999998 -1 0  1 -1 0  1.2 -1 0  1.4 -1 0  1.6 -1 0  1.8 -1 0  2 -1 0  -2 -0.8 0  -1.8 -0.8 0  -1.6 -0.8 0  -1.4 -0.8 0  -1.2 -0.8 0  -1 -0.8 0  -0.8 -0.8 0  -0.6000000000000001 -0.8 0  -0.3999999999999999 -0.8 0  -0.2 -0.8 0  0 -0.8 0  0.2000000000000002 -0.8 0  0.3999999999999999 -0.8 0  0.6000000000000001 -0.8 0  0.7999999999999998 -0.8 0  1 -0.8 0  1.2 -0.8 0  1.4 -0.8 0  1.6 -0.8 0  1.8 -0.8 0  2 -0.8 0  -2 -0.6000000000000001 0  -1.8 -0.6000000000000001 0  -1.6 -0.6000000000000001 0  -1.4 -0.6000000000000001 0  -1.2 -0.6000000000000001 0  -1 -0.6000000000000001 0  -0.8 -0.6000000000000001 0  -0.6000000000000001 -0.6000000000000001 0  -0.3999999999999999 -0.6000000000000001 0  -0.2 -0.6000000000000001 0  0 -0.6000000000000001 0  0.2000000000000002 -0.6000000000000001 0  0.3999999999999999 -0.6000000000000001 0  0.6000000000000001 -0.6000000000000001 0  0.7999999999999998 -0.6000000000000001 0  1 -0.6000000000000001 0  1.2 -0.6000000000000001 0  1.4 -0.6000000000000001 0  1.6 -0.6000000000000001 0  1.8 -0.6000000000000001 0  2 -0.6000000000000001 0  -2 -0.3999999999999999 0  -1.8 -0.3999999999999999 0  -1.6 -0.3999999999999999 0  -1.4 -0.3999999999999999 0  -1.2 -0.3999999999999999 0  -1 -0.3999999999999999 0  -0.8 -0.3999999999999999 0  -0.6000000000000001 -0.3999999999999999 0  -0.3999999999999999 -0.3999999999999999 0  -0.2 -0.3999999999999999 0  0 -0.3999999999999999 0  0.2000000000000002 -0.3999999999999999 0  0.3999999999999999 -0.3999999999999999 0  0.6000000000000001 -0.3999999999999999 0  0.7999999999999998 -0.3999999999999999 0  1 -0.3999999999999999 0  1.2 -0.3999999999999999 0  1.4 -0.3999999999999999 0  1.6 -0.3999999999999999 0  1.8 -0.3999999999999999 0  2 -0.3999999999999999 0  -2 -0.2 0  -1.8 -0.2 0  -1.6 -0.2 0  -1.4 -0.2 0  -1.2 -0.2 0  -1 -0.2 0  -0.8 -0.2 0  -0.6000000000000001 -0.2 0  -0.3999999999999999 -0.2 0  -0.2 -0.2 0  0 -0.2 0  0.2000000000000002 -0.2 0  0.3999999999999999 -0.2 0  0.6000000000000001 -0.2 0  0.7999999999999998 -0.2 0  1 -0.2 0  1.2 -0.2 0  1.4 -0.2 0  1.6 -0.2 0  1.8 -0.2 0  2 -0.2 0  -2 0 0  -1.8 0 0  -1.6 0 0  -1.4 0 0  -1.2 0 0  -1 0 0  -0.8 0 0  -0.6000000000000001 0 0  -0.3999999999999999 0 0  -0.2 0 0  0 0 0  0.2000000000000002 0 0  0.3999999999999999 0 0  0.6000000000000001 0 0  0.7999999999999998 0 0  1 0 0  1.2 0 0  1.4 0 0  1.6 0 0  1.8 0 0  2 0 0  -2 0.2000000000000002 0  -1.8 0.2000000000000002 0  -1.6 0.2000000000000002 0  -1.4 0.2000000000000002 0  -1.2 0.2000000000000002 0  -1 0.2000000000000002 0  -0.8 0.2000000000000002 0  -0.6000000000000001 0.2000000000000002 0  -0.3999999999999999 0.2000000000000002 0  -0.2 0.2000000000000002 0  0 0.2000000000000002 0  0.2000000000000002 0.2000000000000002 0  0.3999999999999999 0.2000000000000002 0  0.6000000000000001 0.2000000000000002 0  0.7999999999999998 0.2000000000000002 0  1 0.2000000000000002 0  1.2 0.2000000000000002 0  1.4 0.2000000000000002 0  1.6 0.2000000000000002 0  1.8 0.2000000000000002 0  2 0.2000000000000002 0  -2 0.3999999999999999 0  -1.8 0.3999999999999999 0  -1.6 0.3999999999999999 0  -1.4 0.3999999999999999 0  -1.2 0.3999999999999999 0  -1 0.3999999999999999 0  -0.8 0.3999999999999999 0  -0.6000000000000001 0.3999999999999999 0  -0.3999999999999999 0.3999999999999999 0  -0.2 0.3999999999999999 0  0 0.3999999999999999 0  0.2000000000000002 0.3999999999999999 0  0.3999999999999999 0.3999999999999999 0  0.6000000000000001 0.3999999999999999 0  0.7999999999999998 0.3999999999999999 0  1 0.3999999999999999 0  1.2 0.3999999999999999 0  1.4 0.3999999999999999 0  1.6 0.3999999999999999 0  1.8 0.3999999999999999 0  2 0.3999999999999999 0  -2 0.6000000000000001 0  -1.8 0.6000000000000001 0  -1.6 0.6000000000000001 0  -1.4 0.6000000000000001 0  -1.2 0.6000000000000001 0  -1 0.6000000000000001 0  -0.8 0.6000000000000001 0  -0.6000000000000001 0.6000000000000001 0  -0.3999999999999999 0.6000000000000001 0  -0.2 0.6000000000000001 0  0 0.6000000000000001 0  0.2000000000000002 0.6000000000000001 0  0.3999999999999999 0.6000000000000001 0  0.6000000000000001 0.6000000000000001 0  0.7999999999999998 0.6000000000000001 0  1 0.6000000000000001 0  1.2 0.6000000000000001 0  1.4 0.6000000000000001 0  1.6 0.6000000000000001 0  1.8 0.6000000000000001 0  2 0.6000000000000001 0  -2 0.7999999999999998 0  -1.8 0.7999999999999998 0  -1.6 0.7999999999999998 0  -1.4 0.7999999999999998 0  -1.2 0.7999999999999998 0  -1 0.7999999999999998 0  -0.8 0.7999999999999998 0  -0.6000000000000001 0.7999999999999998 0  -0.3999999999999999 0.7999999999999998 0  -0.2 0.7999999999999998 0  0 0.7999999999999998 0  0.2000000000000002 0.7999999999999998 0  0.3999999999999999 0.7999999999999998 0  0.6000000000000001 0.7999999999999998 0  0.7999999999999998 0.7999999999999998 0  1 0.7999999999999998 0  1.2 0.7999999999999998 0  1.4 0.7999999999999998 0  1.6 0.7999999999999998 0  1.8 0.7999999999999998 0  2 0.7999999999999998 0  -2 1 0  -1.8 1 0  -1.6 1 0  -1.4 1 0  -1.2 1 0  -1 1 0  -0.8 1 0  -0.6000000000000001 1 0  -0.3999999999999999 1 0  -0.2 1 0  0 1 0  0.2000000000000002 1 0  0.3999999999999999 1 0  0.6000000000000001 1 0  0.7999999999999998 1 0  1 1 0  1.2 1 0  1.4 1 0  1.6 1 0  1.8 1 0  2 1 0  -2 1.2 0  -1.8 1.2 0  -1.6 1.2 0  -1.4 1.2 0  -1.2 1.2 0  -1 1.2 0  -0.8 1.2 0  -0.6000000000000001 1.2 0  -0.3999999999999999 1.2 0  -0.2 1.2 0  0 1.2 0  0.2000000000000002 1.2 0  0.3999999999999999 1.2 0  0.6000000000000001 1.2 0  0.7999999999999998 1.2 0  1 1.2 0  1.2 1.2 0  1.4 1.2 0  1.6 1.2 0  1.8 1.2 0  2 1.2 0  -2 1.4 0  -1.8 1.4 0  -1.6 1.4 0  -1.4 1.4 0  -1.2 1.4 0  -1 1.4 0  -0.8 1.4 0  -0.6000000000000001 1.4 0  -0.3999999999999999 1.4 0  -0.2 1.4 0  0 1.4 0  0.2000000000000002 1.4 0  0.3999999999999999 1.4 0  0.6000000000000001 1.4 0  0.7999999999999998 1.4 0  1 1.4 0  1.2 1.4 0  1.4 1.4 0  1.6 1.4 0  1.8 1.4 0  2 1.4 0  -2 1.6 0  -1.8 1.6 0  -1.6 1.6 0  -1.4 1.6 0  -1.2 1.6 0  -1 1.6 0  -0.8 1.6 0  -0.6000000000000001 1.6 0  -0.3999999999999999 1.6 0  -0.2 1.6 0  0 1.6 0  0.2000000000000002 1.6 0  0.3999999999999999 1.6 0  0.6000000000000001 1.6 0  0.7999999999999998 1.6 0  1 1.6 0  1.2 1.6 0  1.4 1.6 0  1.6 1.6 0  1.8 1.6 0  2 1.6 0  -2 1.8 0  -1.8 1.8 0  -1.6 1.8 0  -1.4 1.8 0  -1.2 1.8 0  -1 1.8 0  -0.8 1.8 0  -0.6000000000000001 1.8 0  -0.3999999999999999 1.8 0  -0.2 1.8 0  0 1.8 0  0.2000000000000002 1.8 0  0.3999999999999999 1.8 0  0.6000000000000001 1.8 0  0.7999999999999998 1.8 0  1 1.8 0  1.2 1.8 0  1.4 1.8 0  1.6 1.8 0  1.8 1.8 0  2 1.8 0  -2 2 0  -1.8 2 0  -1.6 2 0  -1.4 2 0  -1.2 2 0  -1 2 0  -0.8 2 0  -0.6000000000000001 2 0  -0.3999999999999999 2 0  -0.2 2 0  0 2 0  0.2000000000000002 2 0  0.3999999999999999 2 0  0.6000000000000001 2 0  0.7999999999999998 2 0  1 2 0  1.2 2 0  1.4 2 0  1.6 2 0  1.8 2 0  2 2 0  </DataArray>
</Points>
<Cells>
[...]
<PointData  Scalars="f_8"> 
<DataArray  type="Float64"  Name="f_8"  format="ascii">3.7066220158602538e-02  3.7068455366251064e-02  3.7069388752867326e-02  3.7069874388871646e-02  3.7070164976880052e-02  3.7070352923155893e-02  3.7070480090060198e-02  3.7070569135398350e-02  3.7070634109982237e-02  3.7070684761463017e-02  3.7070728637821827e-02  3.7070772340342603e-02  3.7070822469118796e-02  3.7070886566890185e-02  3.7070974365868786e-02  3.7071099875968988e-02  3.7071285651092384e-02  3.7071573293112080e-02  3.7072054584789904e-02  3.7072981104788037e-02  3.7075208398922747e-02  3.7082416171396383e-02  3.7082932852534584e-02  3.7083432143342754e-02  3.7083786923562220e-02  3.7084028334858112e-02  3.7084193323325347e-02  3.7084307740167591e-02  3.7084388731881072e-02  3.7084448055149433e-02  3.7084494302747774e-02  3.7084534313928885e-02  3.7084574143712773e-02  3.7084619845705734e-02  3.7084678253846363e-02  3.7084757948359456e-02  3.7084870660828100e-02  3.7085033497140568e-02  3.7085272275042235e-02  3.7085624052603634e-02  3.7086120709983635e-02  3.7086637009476051e-02  3.7124397230897895e-02  3.7124455047502794e-02  3.7124643257494976e-02  3.7124830161594534e-02  3.7124980702712668e-02  3.7125093392633819e-02  3.7125175388077497e-02  3.7125234723314270e-02  3.7125278410501936e-02  3.7125312303010520e-02  3.7125341419951025e-02  3.7125370360949546e-02  3.7125403726825011e-02  3.7125446540781405e-02  3.7125504665560027e-02  3.7125585135581778e-02  3.7125696042031135e-02  3.7125844688517096e-02  3.7126029939603809e-02  3.7126217443474316e-02  3.7126276415205502e-02  3.7191431559110796e-02  3.7191326868665178e-02  3.7191335843779559e-02  3.7191388220831088e-02  3.7191447343615194e-02  3.7191498786999712e-02  3.7191538905149292e-02  3.7191568484683739e-02  3.7191589850301035e-02  3.7191605706218059e-02  3.7191618755891276e-02  3.7191631646575060e-02  3.7191647030202883e-02  3.7191667625844423e-02  3.7191696169778465e-02  3.7191735047198748e-02  3.7191785156388477e-02  3.7191843051146881e-02  3.7191894634481408e-02  3.7191903694712460e-02  3.7191800348815078e-02  3.7281613258940728e-02  3.7281428212928784e-02  3.7281330741749677e-02  3.7281286164542210e-02  3.7281268402841870e-02  3.7281262046052865e-02  3.7281259236910537e-02  3.7281256506316869e-02  3.7281252675741915e-02  3.7281247674405327e-02  3.7281241926815312e-02  3.7281236044364736e-02  3.7281230645709942e-02  3.7281226178879558e-02  3.7281222618354239e-02  3.7281218862472112e-02  3.7281211564674691e-02  3.7281193049920960e-02  3.7281148148736593e-02  3.7281051037032380e-02  3.7280867188287541e-02  3.7392356717674331e-02  3.7392121396126181e-02  3.7391956251481451e-02  3.7391843476899639e-02  3.7391765960282104e-02  3.7391710790252858e-02  3.7391669311229614e-02  3.7391636046912931e-02  3.7391607586752501e-02  3.7391581749829539e-02  3.7391557023778998e-02  3.7391532189636714e-02  3.7391506036619761e-02  3.7391477078235820e-02  3.7391443181010113e-02  3.7391401009237442e-02  3.7391345194619591e-02  3.7391267223351073e-02  3.7391154345716604e-02  3.7390989592331086e-02  3.7390755220172184e-02  3.7520577797490920e-02  3.7520308128584839e-02  3.7520098294487270e-02  3.7519938327968995e-02  3.7519816860707725e-02  3.7519723697271821e-02  3.7519650680665789e-02  3.7519591606140060e-02  3.7519541788518324e-02  3.7519497589053714e-02  3.7519456006891674e-02  3.7519414342780714e-02  3.7519369904963303e-02  3.7519319715872322e-02  3.7519260177989962e-02  3.7519186667835422e-02  3.7519093063639333e-02  3.7518971308220295e-02  3.7518811308678617e-02  3.7518601776317349e-02  3.7518332770917262e-02  3.7662808477938618e-02  3.7662516034622492e-02  3.7662277387747141e-02  3.7662086308268061e-02  3.7661934792642897e-02  3.7661814703829288e-02  3.7661718661197420e-02  3.7661640328157685e-02  3.7661574354710459e-02  3.7661516167834856e-02  3.7661461715038806e-02  3.7661407204200893e-02  3.7661348848831308e-02  3.7661282613736136e-02  3.7661203955814154e-02  3.7661107568293557e-02  3.7660987170062589e-02  3.7660835443426958e-02  3.7660644311568944e-02  3.7660405813612130e-02  3.7660113731457730e-02  3.7815298909544506e-02  3.7814993718828564e-02  3.7814738836147645e-02  3.7814529852301292e-02  3.7814360635626272e-02  3.7814224386923626e-02  3.7814114384004158e-02  3.7814024374093681e-02  3.7813948694697397e-02  3.7813882223275828e-02  3.7813820233528611e-02  3.7813758207215185e-02  3.7813691629160831e-02  3.7813615782440989e-02  3.7813525560578563e-02  3.7813415323918596e-02  3.7813278848319122e-02  3.7813109443042447e-02  3.7812900337694112e-02  3.7812645419592290e-02  3.7812340282539256e-02  3.7974118404444389e-02  3.7973809805317969e-02  3.7973549619243437e-02  3.7973334279246235e-02  3.7973158595008938e-02  3.7973016508663818e-02  3.7972901719813101e-02  3.7972808091243246e-02  3.7972729842328169e-02  3.7972661579121811e-02  3.7972598216274238e-02  3.7972534836663151e-02  3.7972466523343018e-02  3.7972388191573329e-02  3.7972294448651911e-02  3.7972179516046443e-02  3.7972037259535192e-02  3.7971861382272411e-02  3.7971645829618733e-02  3.7971385412789493e-02  3.7971076563193755e-02  3.8135256761936971e-02  3.8134953648341879e-02  3.8134698179111991e-02  3.8134487041622984e-02  3.8134315346792000e-02  3.8134177292308204e-02  3.8134066742871849e-02  3.8133977632172578e-02  3.8133904174221210e-02  3.8133840917000637e-02  3.8133782685231724e-02  3.8133724456076427e-02  3.8133661203948600e-02  3.8133587745335436e-02  3.8133498614624145e-02  3.8133388007373190e-02  3.8133249835254610e-02  3.8133077939850199e-02  3.8132866498293040e-02  3.8132610607547107e-02  3.8132306950164056e-02  3.8294724662316051e-02  3.8294435521194270e-02  3.8294194231386261e-02  3.8293997260130448e-02  3.8293839475433099e-02  3.8293714891204741e-02  3.8293617284017374e-02  3.8293540594034114e-02  3.8293479116195989e-02  3.8293427529358048e-02  3.8293380817529157e-02  3.8293334128592010e-02  3.8293282604974291e-02  3.8293221214191542e-02  3.8293144607391465e-02  3.8293047041014147e-02  3.8292922408002958e-02  3.8292764433945449e-02  3.8292567086459069e-02  3.8292325202521682e-02  3.8292035241660624e-02  3.8448651109263182e-02  3.8448384012390160e-02  3.8448166055652211e-02  3.8447992926031196e-02  3.8447858638887909e-02  3.8447756560577320e-02  3.8447680133137971e-02  3.8447623258650629e-02  3.8447580418846244e-02  3.8447546625861785e-02  3.8447517279362395e-02  3.8447487977967355e-02  3.8447454312641433e-02  3.8447411659667537e-02  3.8447354991104445e-02  3.8447278731339872e-02  3.8447176709455869e-02  3.8447042285175488e-02  3.8446868746633139e-02  3.8446650054908209e-02  3.8446381885091023e-02  3.8593375707935786e-02  3.8593138358269843e-02  3.8592952915373943e-02  3.8592813387491202e-02  3.8592712083775370e-02  3.8592641175405999e-02  3.8592593551397270e-02  3.8592563102737627e-02  3.8592544673859308e-02  3.8592533863131939e-02  3.8592526773070637e-02  3.8592519752634537e-02  3.8592509141799895e-02  3.8592491015252292e-02  3.8592460922303333e-02  3.8592413634204695e-02  3.8592342943538367e-02  3.8592241620690367e-02  3.8592101715148708e-02  3.8591915444435396e-02  3.8591676795133541e-02  3.8725533544392676e-02  3.8725333517325794e-02  3.8725190460396963e-02  3.8725094985341532e-02  3.8725036363058754e-02  3.8725004929308880e-02  3.8724992917031721e-02  3.8724994398442160e-02  3.8725004892425197e-02  3.8725020922497085e-02  3.8725039626156796e-02  3.8725058425627568e-02  3.8725074734094402e-02  3.8725085660525176e-02  3.8725087676204521e-02  3.8725076217520436e-02  3.8725045236922898e-02  3.8724986808471057e-02  3.8724891085144396e-02  3.8724747179918528e-02  3.8724545654886200e-02  3.8842130385649813e-02  3.8841975911216735e-02  3.8841887251567460e-02  3.8841848025723796e-02  3.8841842390863475e-02  3.8841858284078011e-02  3.8841887534735407e-02  3.8841924920878443e-02  3.8841967165075222e-02  3.8842012164857470e-02  3.8842058463361015e-02  3.8842104883607884e-02  3.8842150241078899e-02  3.8842193054527296e-02  3.8842231174591124e-02  3.8842261243887531e-02  3.8842277911594038e-02  3.8842272811842701e-02  3.8842233617602140e-02  3.8842144206760569e-02  3.8841988065424361e-02  3.8940605519060430e-02  3.8940507915305483e-02  3.8940491038919937e-02  3.8940523737735093e-02  3.8940582303928953e-02  3.8940652492053099e-02  3.8940726863070887e-02  3.8940802004768904e-02  3.8940876657949791e-02  3.8940950638178047e-02  3.8941024259022690e-02  3.8941098024146664e-02  3.8941172432584485e-02  3.8941247782489412e-02  3.8941323857785953e-02  3.8941399339267734e-02  3.8941470702379903e-02  3.8941530302259282e-02  3.8941563543394335e-02  3.8941546228023614e-02  3.8941446827053236e-02  3.9018877694878232e-02  3.9018859594183102e-02  3.9018944469872009e-02  3.9019070544207064e-02  3.9019204934649276e-02  3.9019334223469267e-02  3.9019454622208946e-02  3.9019566431401240e-02  3.9019671466795691e-02  3.9019771995914915e-02  3.9019870359677133e-02  3.9019968883150846e-02  3.9020069890260370e-02  3.9020175717960875e-02  3.9020288624564754e-02  3.9020410403644609e-02  3.9020541298424416e-02  3.9020677370285244e-02  3.9020804830335223e-02  3.9020890014832915e-02  3.9020870092607469e-02  3.9075361857489992e-02  3.9075488452903616e-02  3.9075732460422667e-02  3.9075979833730838e-02  3.9076198811040325e-02  3.9076386871153480e-02  3.9076549397554686e-02  3.9076692877713044e-02  3.9076823150470681e-02  3.9076945202720141e-02  3.9077063388222311e-02  3.9077181738934721e-02  3.9077304288255711e-02  3.9077435395069839e-02  3.9077580057433128e-02  3.9077744134503399e-02  3.9077934141894727e-02  3.9078155469111642e-02  3.9078405427700635e-02  3.9078651376524609e-02  3.9078776615977161e-02  3.9108910779863074e-02  3.9109421748949977e-02  3.9109929418298321e-02  3.9110321498690731e-02  3.9110620809842664e-02  3.9110856794911365e-02  3.9111050465953826e-02  3.9111215962114643e-02  3.9111363124480540e-02  3.9111499262784163e-02  3.9111630282858301e-02  3.9111761463594900e-02  3.9111898085791484e-02  3.9112046062388064e-02  3.9112212720329151e-02  3.9112407939280926e-02  3.9112645943208853e-02  3.9112947927469485e-02  3.9113343684969021e-02  3.9113856229542263e-02  3.9114368827408798e-02  3.9118482554219340e-02  3.9120395629777857e-02  3.9121261756992889e-02  3.9121763822726134e-02  3.9122105595367440e-02  3.9122362177695047e-02  3.9122567865939199e-02  3.9122741403091174e-02  3.9122894557576428e-02  3.9123035613964602e-02  3.9123171078288603e-02  3.9123306692203819e-02  3.9123448197968112e-02  3.9123602104299132e-02  3.9123776703413653e-02  3.9123983782151123e-02  3.9124242124429998e-02  3.9124586123372856e-02  3.9125091197106339e-02  3.9125962695760630e-02  3.9127893479089890e-02  </DataArray> 
</PointData> 
</Piece>
</UnstructuredGrid>
</VTKFile>