<?xml version="1.0"?>
<VTKFile type="UnstructuredGrid"  version="0.1"  >
<UnstructuredGrid>
<Piece  NumberOfPoints="441" NumberOfCells="800">
<Points>
<DataArray  type="Float64"  NumberOfComponents="3"  format="ascii">-2 -2 0  -1.8 -2 0  -1.6 -2 0  -1.4 -2 0  -1.2 -2 0  -1 -2 0  -0.8 -2 0  -0.6000000000000001 -2 0  -0.3999999999999999 -2 0  -0.2 -2 0  0 -2 0  0.2000000000000002 -2 0  0.3999999999999999 -2 0  0.6000000000000001 -2 0  0.7999999999999998 -2 0  1 -2 0  1.2 -2 0  1.4 -2 0  1.6 -2 0  1.8 -2 0  2 -2 0  -2 -1.8 0  -1.8 -1.8 0  -1.6 -1.8 0  -1.4 -1.8 0  -1.2 -1.8 0  -1 -1.8 0  -0.8 -1.8 0  -0.6000000000000001 -1.8 0  -0.3999999999999999 -1.8 0  -0.2 -1.8 0  0 -1.8 0  0.2000000000000002 -1.8 0  0.3999999999999999 -1.8 0  0.6000000000000001 -1.8 0  0.7999999999999998 -1.8 0  1 -1.8 0  1.2 -1.8 0  1.4 -1.8 0  1.6 -1.8 0  1.8 -1.8 0  2 -1.8 0  -2 -1.6 0  -1.8 -1.6 0  -1.6 -1.6 0  -1.4 -1.6 0  -1.2 -1.6 0  -1 -1.6 0  -0.8 -1.6 0  -0.6000000000000001 -1.6 0  -0.3999999999999999 -1.6 0  -0.2 -1.6 0  0 -1.6 0  0.2000000000000002 -1.6 0  0.3999999999999999 -1.6 0  0.6000000000000001 -1.6 0  0.7999999999999998 -1.6 0  1 -1.6 0  1.2 -1.6 0  1.4 -1.6 0  1.6 -1.6 0  1.8 -1.6 0  2 -1.6 0  -2 -1.4 0  -1.8 -1.4 0  -1.6 -1.4 0  -1.4 -1.4 0  -1.2 -1.4 0  -1 -1.4 0  -0.8 -1.4 0  -0.6000000000000001 -1.4 0  -0.3999999999999999 -1.4 0  -0.2 -1.4 0  0 -1.4 0  0.2000000000000002 -1.4 0  0.3999999999999999 -1.4 0  0.6000000000000001 -1.4 0  0.7999999999999998 -1.4 0  1 -1.4 0  1.2 -1.4 0  1.4 -1.4 0  1.6 -1.4 0  1.8 -1.4 0  2 -1.4 0  -2 -1.2 0  -1.8 -1.2 0  -1.6 -1.2 0  -1.4 -1.2 0  -1.2 -1.2 0  -1 -1.2 0  -0.8 -1.2 0  -0.6000000000000001 -1.2 0  -0.3999999999999999 -1.2 0  -0.2 -1.2 0  0 -1.2 0  0.2000000000000002 -1.2 0  0.3999999999999999 -1.2 0  0.6000000000000001 -1.2 0  0.7999999999999998 -1.2 0  1 -1.2 0  1.2 -1.2 0  1.4 -1.2 0  1.6 -1.2 0  1.8 -1.2 0  2 -1.2 0  -2 -1 0  -1.8 -1 0  -1.6 -1 0  -1.4 -1 0  -1.2 -1 0  -1 -1 0  -0.8 -1 0  -0.6000000000000001 -1 0  -0.3999999999999999 -1 0  -0.2 -1 0  0 -1 0  0.2000000000000002 -1 0  0.3999999999999999 -1 0  0.6000000000000001 -1 0  0.7999999999999998 -1 0  1 -1 0  1.2 -1 0  1.4 -1 0  1.6 -1 0  1.8 -1 0  2 -1 0  -2 -0.8 0  -1.8 -0.8 0  -1.6 -0.8 0  -1.4 -0.8 0  -1.2 -0.8 0  -1 -0.8 0  -0.8 -0.8 0  -0.6000000000000001 -0.8 0  -0.3999999999999999 -0.8 0  -0.2 -0.8 0  0 -0.8 0  0.2000000000000002 -0.8 0  0.3999999999999999 -0.8 0  0.6000000000000001 -0.8 0  0.7999999999999998 -0.8 0  1 -0.8 0  1.2 -0.8 0  1.4 -0.8 0  1.6 -0.8 0  1.8 -0.8 0  2 -0.8 0  -2 -0.6000000000000001 0  -1.8 -0.6000000000000001 0  -1.6 -0.6000000000000001 0  -1.4 -0.6000000000000001 0  -1.2 -0.6000000000000001 0  -1 -0.6000000000000001 0  -0.8 -0.6000000000000001 0  -0.6000000000000001 -0.6000000000000001 0  -0.3999999999999999 -0.6000000000000001 0  -0.2 -0.6000000000000001 0  0 -0.6000000000000001 0  0.2000000000000002 -0.6000000000000001 0  0.3999999999999999 -0.6000000000000001 0  0.6000000000000001 -0.6000000000000001 0  0.7999999999999998 -0.6000000000000001 0  1 -0.6000000000000001 0  1.2 -0.6000000000000001 0  1.4 -0.6000000000000001 0  1.6 -0.6000000000000001 0  1.8 -0.6000000000000001 0  2 -0.6000000000000001 0  -2 -0.3999999999999999 0  -1.8 -0.3999999999999999 0  -1.6 -0.3999999999999999 0  -1.4 -0.3999999999999999 0  -1.2 -0.3999999999999999 0  -1 -0.3999999999999999 0  -0.8 -0.3999999999999999 0  -0.6000000000000001 -0.3999999999999999 0  -0.3999999999999999 -0.3999999999999999 0  -0.2 -0.3999999999999999 0  0 -0.3999999999999999 0  0.2000000000000002 -0.3999999999999999 0  0.3999999999999999 -0.3999999999999999 0  0.6000000000000001 -0.3999999999999999 0  0.7999999999999998 -0.3999999999999999 0  1 -0.3999999999999999 0  1.2 -0.3999999999999999 0  1.4 -0.3999999999999999 0  1.6 -0.3999999999999999 0  1.8 -0.3999999999999999 0  2 -0.3999999999999999 0  -2 -0.2 0  -1.8 -0.2 0  -1.6 -0.2 0  -1.4 -0.2 0  -1.2 -0.2 0  -1 -0.2 0  -0.8 -0.2 0  -0.6000000000000001 -0.2 0  -0.3999999999999999 -0.2 0  -0.2 -0.2 0  0 -0.2 0  0.2000000000000002 -0.2 0  0.3999999999999999 -0.2 0  0.6000000000000001 -0.2 0  0.7999999999999998 -0.2 0  1 -0.2 0  1.2 -0.2 0  1.4 -0.2 0  1.6 -0.2 0  1.8 -0.2 0  2 -0.2 0  -2 0 0  -1.8 0 0  -1.6 0 0  -1.4 0 0  -1.2 0 0  -1 0 0  -0.8 0 0  -0.6000000000000001 0 0  -0.3999999999999999 0 0  -0.2 0 0  0 0 0  0.2000000000000002 0 0  0.3999999999999999 0 0  0.6000000000000001 0 0  0.7999999999999998 0 0  1 0 0  1.2 0 0  1.4 0 0  1.6 0 0  1.8 0 0  2 0 0  -2 0.2000000000000002 0  -1.8 0.2000000000000002 0  -1.6 0.2000000000000002 0  -1.4 0.2000000000000002 0  -1.2 0.2000000000000002 0  -1 0.2000000000000002 0  -0.8 0.2000000000000002 0  -0.6000000000000001 0.2000000000000002 0  -0.3999999999999999 0.2000000000000002 0  -0.2 0.2000000000000002 0  0 0.2000000000000002 0  0.2000000000000002 0.2000000000000002 0  0.3999999999999999 0.2000000000000002 0  0.6000000000000001 0.2000000000000002 0  0.7999999999999998 0.2000000000000002 0  1 0.2000000000000002 0  1.2 0.2000000000000002 0  1.4 0.2000000000000002 0  1.6 0.2000000000000002 0  1.8 0.2000000000000002 0  2 0.2000000000000002 0  -2 0.3999999999999999 0  -1.8 0.3999999999999999 0  -1.6 0.3999999999999999 0  -1.4 0.3999999999999999 0  -1.2 0.3999999999999999 0  -1 0.3999999999999999 0  -0.8 0.3999999999999999 0  -0.6000000000000001 0.3999999999999999 0  -0.3999999999999999 0.3999999999999999 0  -0.2 0.3999999999999999 0  0 0.3999999999999999 0  0.2000000000000002 0.3999999999999999 0  0.3999999999999999 0.3999999999999999 0  0.6000000000000001 0.3999999999999999 0  0.7999999999999998 0.3999999999999999 0  1 0.3999999999999999 0  1.2 0.3999999999999999 0  1.4 0.3999999999999999 0  1.6 0.3999999999999999 0  1.8 0.3999999999999999 0  2 0.3999999999999999 0  -2 0.6000000000000001 0  -1.8 0.6000000000000001 0  -1.6 0.6000000000000001 0  -1.4 0.6000000000000001 0  -1.2 0.6000000000000001 0  -1 0.6000000000000001 0  -0.8 0.6000000000000001 0  -0.6000000000000001 0.6000000000000001 0  -0.3999999999999999 0.6000000000000001 0  -0.2 0.6000000000000001 0  0 0.6000000000000001 0  0.2000000000000002 0.6000000000000001 0  0.3999999999999999 0.6000000000000001 0  0.6000000000000001 0.6000000000000001 0  0.7999999999999998 0.6000000000000001 0  1 0.6000000000000001 0  1.2 0.6000000000000001 0  1.4 0.6000000000000001 0  1.6 0.6000000000000001 0  1.8 0.6000000000000001 0  2 0.6000000000000001 0  -2 0.7999999999999998 0  -1.8 0.7999999999999998 0  -1.6 0.7999999999999998 0  -1.4 0.7999999999999998 0  -1.2 0.7999999999999998 0  -1 0.7999999999999998 0  -0.8 0.7999999999999998 0  -0.6000000000000001 0.7999999999999998 0  -0.3999999999999999 0.7999999999999998 0  -0.2 0.7999999999999998 0  0 0.7999999999999998 0  0.2000000000000002 0.7999999999999998 0  0.3999999999999999 0.7999999999999998 0  0.6000000000000001 0.7999999999999998 0  0.7999999999999998 0.7999999999999998 0  1 0.7999999999999998 0  1.2 0.7999999999999998 0  1.4 0.7999999999999998 0  1.6 0.7999999999999998 0  1.8 0.7999999999999998 0  2 0.7999999999999998 0  -2 1 0  -1.8 1 0  -1.6 1 0  -1.4 1 0  -1.2 1 0  -1 1 0  -0.8 1 0  -0.6000000000000001 1 0  -0.3999999999999999 1 0  -0.2 1 0  0 1 0  0.2000000000000002 1 0  0.3999999999999999 1 0  0.6000000000000001 1 0  0.7999999999999998 1 0  1 1 0  1.2 1 0  1.4 1 0  1.6 1 0  1.8 1 0  2 1 0  -2 1.2 0  -1.8 1.2 0  -1.6 1.2 0  -1.4 1.2 0  -1.2 1.2 0  -1 1.2 0  -0.8 1.2 0  -0.6000000000000001 1.2 0  -0.3999999999999999 1.2 0  -0.2 1.2 0  0 1.2 0  0.2000000000000002 1.2 0  0.3999999999999999 1.2 0  0.6000000000000001 1.2 0  0.7999999999999998 1.2 0  1 1.2 0  1.2 1.2 0  1.4 1.2 0  1.6 1.2 0  1.8 1.2 0  2 1.2 0  -2 1.4 0  -1.8 1.4 0  -1.6 1.4 0  -1.4 1.4 0  -1.2 1.4 0  -1 1.4 0  -0.8 1.4 0  -0.6000000000000001 1.4 0  -0.3999999999999999 1.4 0  -0.2 1.4 0  0 1.4 0  0.2000000000000002 1.4 0  0.3999999999999999 1.4 0  0.6000000000000001 1.4 0  0.7999999999999998 1.4 0  1 1.4 0  1.2 1.4 0  1.4 1.4 0  1.6 1.4 0  1.8 1.4 0  2 1.4 0  -2 1.6 0  -1.8 1.6 0  -1.6 1.6 0  -1.4 1.6 0  -1.2 1.6 0  -1 1.6 0  -0.8 1.6 0  -0.6000000000000001 1.6 0  -0.3999999999999999 1.6 0  -0.2 1.6 0  0 1.6 0  0.2000000000000002 1.6 0  0.3999999999999999 1.6 0  0.6000000000000001 1.6 0  0.7999999999999998 1.6 0  1 1.6 0  1.2 1.6 0  1.4 1.6 0  1.6 1.6 0  1.8 1.6 0  2 1.6 0  -2 1.8 0  -1.8 1.8 0  -1.6 1.8 0  -1.4 1.8 0  -1.2 1.8 0  -1 1.8 0  -0.8 1.8 0  -0.6000000000000001 1.8 0  -0.3999999999999999 1.8 0  -0.2 1.8 0  0 1.8 0  0.2000000000000002 1.8 0  0.3999999999999999 1.8 0  0.6000000000000001 1.8 0  0.7999999999999998 1.8 0  1 1.8 0  1.2 1.8 0  1.4 1.8 0  1.6 1.8 0  1.8 1.8 0  2 1.8 0  -2 2 0  -1.8 2 0  -1.6 2 0  -1.4 2 0  -1.2 2 0  -1 2 0  -0.8 2 0  -0.6000000000000001 2 0  -0.3999999999999999 2 0  -0.2 2 0  0 2 0  0.2000000000000002 2 0  0.3999999999999999 2 0  0.6000000000000001 2 0  0.7999999999999998 2 0  1 2 0  1.2 2 0  1.4 2 0  1.6 2 0  1.8 2 0  2 2 0  </DataArray>
</Points>
<Cells>
[...]
<PointData  Scalars="f_8"> 
<DataArray  type="Float64"  Name="f_8"  format="ascii">6.5452108825356237e-02  6.4762062405339799e-02  6.3060816084205079e-02  6.0419074033260120e-02  5.6955606487496944e-02  5.2825307825804454e-02  4.8205997334623593e-02  4.3284908277748120e-02  3.8245957341723494e-02  3.3258809912027856e-02  2.8470521433198948e-02  2.4000208622111247e-02  1.9936851571219608e-02  1.6340004537377880e-02  1.3242939991305039e-02  1.0657589650938767e-02  8.5805825708127233e-03  6.9997052645354588e-03  5.9002067182065973e-03  5.2705275003635567e-03  5.1072423105730678e-03  6.5167139189886966e-02  6.4618544627705804e-02  6.3012189203950811e-02  6.0434671995087570e-02  5.7013586354368623e-02  5.2908974972005397e-02  4.8302042600072120e-02  4.3382670033825774e-02  3.8337172443008390e-02  3.3337532629805232e-02  2.8533027645497616e-02  2.4044793829507222e-02  1.9963490274350907e-02  1.6349871836096628e-02  1.3237806768076394e-02  1.0639090869162893e-02  8.5493218153280554e-03  6.9540905335593994e-03  5.8347962454247688e-03  5.1734667547588360e-03  4.9560308088687022e-03  6.5125115917189225e-02  6.4586975840480551e-02  6.2999986081664114e-02  6.0443070085755501e-02  5.7039686340311403e-02  5.2947828747985183e-02  4.8347965667575189e-02  4.3430110903839143e-02  3.8381289523520726e-02  3.3374543851499537e-02  2.8560364813190055e-02  2.4061087011535514e-02  1.9968412347329378e-02  1.6343881000526417e-02  1.3221831512630013e-02  1.0614207312827372e-02  8.5164808930718993e-03  6.9139693152221026e-03  5.7878865420804603e-03  5.1205972282172881e-03  4.8996854995482786e-03  6.5129324510098077e-02  6.4592733577167882e-02  6.3009678011270734e-02  6.0457678691147931e-02  5.7058836950263064e-02  5.2970119782735310e-02  4.8371390337373692e-02  4.3452468441612387e-02  3.8400529907843699e-02  3.3389016416513144e-02  2.8568959709845510e-02  2.4063273369489560e-02  1.9964189003198136e-02  1.6333664455838094e-02  1.3206310990364995e-02  1.0594198430254411e-02  8.4928079115933613e-03  6.8874012847996800e-03  5.7591437560237570e-03  5.0904269189960619e-03  4.8689688016309530e-03  6.5141408846417961e-02  6.4605044299576683e-02  6.3022506063447864e-02  6.0471048885563879e-02  5.7072452167277639e-02  5.2983402015643166e-02  4.8383585247718880e-02  4.3462777021006642e-02  3.8408235766807790e-02  3.3393585688579468e-02  2.8570100297526158e-02  2.4060949779055506e-02  1.9958597185897268e-02  1.6325177082893660e-02  1.3195407002013965e-02  1.0581391461623204e-02  8.4785865560700786e-03  6.8721905067201617e-03  5.7432915258159327e-03  5.0742137667646589e-03  4.8526313541963524e-03  6.5150716231328357e-02  6.4614316885485898e-02  6.3031595649246042e-02  6.0479761567415323e-02  5.7080539818063096e-02  5.2990575620261729e-02  4.8389545653366998e-02  4.3467254389645799e-02  3.8411027913332632e-02  3.3394586870781708e-02  2.8569314987110989e-02  2.4058489559055835e-02  1.9954662369845812e-02  1.6320027320614945e-02  1.3189326671469426e-02  1.0574655956781304e-02  8.4714348011479933e-03  6.8648074418993172e-03  5.7358022793721737e-03  5.0666891409854690e-03  4.8451025090693392e-03  6.5155764778254896e-02  6.4619307022532158e-02  6.3036380977961659e-02  6.0484194238915649e-02  5.7084474753977085e-02  5.2993878569124846e-02  4.8392104066044002e-02  4.3468988919367631e-02  3.8411901903789361e-02  3.3394611513552115e-02  2.8568548727757499e-02  2.4057031520255918e-02  1.9952640731873712e-02  1.6317584500567750e-02  1.3186603619461664e-02  1.0571777901530778e-02  8.4685003915279250e-03  6.8618825749894559e-03  5.7329191353774969e-03  5.0638502064966305e-03  4.8422887710722895e-03  6.5157889140206510e-02  6.4621394916701880e-02  6.3038356843767712e-02  6.0485986592168736e-02  5.7086020000486883e-02  5.2995125027022971e-02  4.8393015786051027e-02  4.3469548696089856e-02  3.8412112841701922e-02  3.3394496668737311e-02  2.8568148649821861e-02  2.4056399886881248e-02  1.9951838608038754e-02  1.6316673987704793e-02  1.3185641742673636e-02  1.0570811512019683e-02  8.4675626684682388e-03  6.8609914497941658e-03  5.7320776898307927e-03  5.0630488620612805e-03  4.8415089168921737e-03  6.5158585525427762e-02  6.4622074425447637e-02  6.3038991469502287e-02  6.0486550885805290e-02  5.7086492791725431e-02  5.2995490925899974e-02  4.8393266304318790e-02  4.3469682827395002e-02  3.8412136977585380e-02  3.3394423804247814e-02  2.8567996934076825e-02  2.4056190677017648e-02  1.9951594264829391e-02  1.6316415688870125e-02  1.3185387578097242e-02  1.0570575068909118e-02  8.4673522295090047e-03  6.8608098341354220e-03  5.7319226849229929e-03  5.0629141373995283e-03  4.8413852831262665e-03  6.5158754826449922e-02  6.4622237440113264e-02  6.3039140552526879e-02  6.0486679410476765e-02  5.7086595681455403e-02  5.2995565058624260e-02  4.8393310741579494e-02  4.3469698834571247e-02  3.8412127824579201e-02  3.3394394364474132e-02  2.8567953128768687e-02  2.4056138835298616e-02  1.9951540482057339e-02  1.6316365263256184e-02  1.3185344588954536e-02  1.0570542133016055e-02  8.4673304413176078e-03  6.8607988678664467e-03  5.7319210176349127e-03  5.0629193448510539e-03  4.8413943643180971e-03  6.5158778600394054e-02  6.4622259489198100e-02  6.3039159451592303e-02  6.0486694024062516e-02  5.7086605284159563e-02  5.2995569410219351e-02  4.8393310106002882e-02  4.3469693939218311e-02  3.8412119764835745e-02  3.3394384466773633e-02  2.8567942792026773e-02  2.4056129373873265e-02  1.9951532992502734e-02  1.6316360532095311e-02  1.3185343050501248e-02  1.0570543876729675e-02  8.4673352594028754e-03  6.8608063277514775e-03  5.7319305417772486e-03  5.0629302822545966e-03  4.8414060434053535e-03  6.5158778670242778e-02  6.4622259567296197e-02  6.3039158699087133e-02  6.0486691721623451e-02  5.7086600929213166e-02  5.2995562779346597e-02  4.8393301275349944e-02  4.3469683262305249e-02  3.8412107813623753e-02  3.3394371947162105e-02  2.8567930448122780e-02  2.4056117895831799e-02  1.9951522940490740e-02  1.6316352284613141e-02  1.3185336779997297e-02  1.0570539550435916e-02  8.4673326597054996e-03  6.8608050848456385e-03  5.7319301718936301e-03  5.0629302268703066e-03  4.8414057076548601e-03  6.5158837318803065e-02  6.4622317629129997e-02  6.3039210810237417e-02  6.0486733139451618e-02  5.7086627954586099e-02  5.2995573054792543e-02  4.8393293931794770e-02  4.3469658904018368e-02  3.8412068350082720e-02  3.3394320298895518e-02  2.8567870167963489e-02  2.4056052754752342e-02  1.9951456527123369e-02  1.6316287660348934e-02  1.3185276219473395e-02  1.0570484383354414e-02  8.4672832172584204e-03  6.8607607445725464e-03  5.7318894891972769e-03  5.0628911389325884e-03  4.8413657945196847e-03  6.5159233922494245e-02  6.4622705739501046e-02  6.3039567050825446e-02  6.0487036782411803e-02  5.7086862381043782e-02  5.2995726866692759e-02  4.8393361610487157e-02  4.3469640939376449e-02  3.8411970814928795e-02  3.3394153909385424e-02  2.8567648937414127e-02  2.4055792401088797e-02  1.9951172821534885e-02  1.6315994902697070e-02  1.3184985997650547e-02  1.0570204727673661e-02  8.4670182077000271e-03  6.8605105777818165e-03  5.7316509695855165e-03  5.0626585260992781e-03  4.8411319163241505e-03  6.5160801806666113e-02  6.4624237838658033e-02  6.3040992160368514e-02  6.0488290406034873e-02  5.7087890335454063e-02  5.2996488542447033e-02  4.8393832522278808e-02  4.3469814137087802e-02  3.8411856805876353e-02  3.3393778941120993e-02  2.8567051751218927e-02  2.4055019819108004e-02  1.9950274716025253e-02  1.6315019179444858e-02  1.3183974201372625e-02  1.0569188763320947e-02  8.4660185002194081e-03  6.8595357990788213e-03  5.7306992744586352e-03  5.0617200784194207e-03  4.8401923631855174e-03  6.5165243757484476e-02  6.4628589787483828e-02  6.3045099964189874e-02  6.0492006577986736e-02  5.7091079479402652e-02  5.2999035209975433e-02  4.8395650152591063e-02  4.3470853045584089e-02  3.8412109196441224e-02  3.3393279507995859e-02  2.8565873362646967e-02  2.4053264762575844e-02  1.9948062802848349e-02  1.6312474508156368e-02  1.3181212514211085e-02  1.0566307129622287e-02  8.4630886096490523e-03  6.8566015524415590e-03  5.7277787223578933e-03  5.0588111647238846e-03  4.8372814526963463e-03  6.5174629234662607e-02  6.4637851518966921e-02  6.3054044836179907e-02  6.0500408777033186e-02  5.7098679409039392e-02  5.3005557250742921e-02  4.8400833062390222e-02  4.3474484154338668e-02  3.8414053791625720e-02  3.3393498998158633e-02  2.8564428969736967e-02  2.4050306775177652e-02  1.9943808174751849e-02  1.6307177416490272e-02  1.3175133256557591e-02  1.0559684505033737e-02  8.4561198932143686e-03  6.8494325922104785e-03  5.7205048183329235e-03  5.0514874852333443e-03  4.8299401031374912e-03  6.5188586949928615e-02  6.4651914254394316e-02  6.3068386377405042e-02  6.0514942034600408e-02  5.7113028597540978e-02  5.3019117055889013e-02  4.8412878488008369e-02  4.3484295710613380e-02  3.8421029757171862e-02  3.3397235894724819e-02  2.8564761136981327e-02  2.4047304739952310e-02  1.9937742491542215e-02  1.6298459299645695e-02  1.3164245493152938e-02  1.0547116012024491e-02  8.4423152323756679e-03  6.8347641597419559e-03  5.7052705290684064e-03  5.0359307002168958e-03  4.8142816912320275e-03  6.5197009412363074e-02  6.4661897214498026e-02  6.3082057965138702e-02  6.0533022045066394e-02  5.7134948845015888e-02  5.3043379264270461e-02  4.8437477120680500e-02  4.3507114825639320e-02  3.8440164714584807e-02  3.3411215459006639e-02  2.8572663114061345e-02  2.4048772206739195e-02  1.9932918516006662e-02  1.6287865542233316e-02  1.3148634072549483e-02  1.0527324796104194e-02  8.4191548457578855e-03  6.8089607582497366e-03  5.6774807090421023e-03  5.0068295452200045e-03  4.7846911812952373e-03  6.5160181483951377e-02  6.4636034925989280e-02  6.3075298318568729e-02  6.0546226090781877e-02  5.7165056843340938e-02  5.3085400356399116e-02  4.8485751931889948e-02  4.3556158900118241e-02  3.8485231168412348e-02  3.3448635812219636e-02  2.8599995147362715e-02  2.4064778713241294e-02  1.9937406486733936e-02  1.6281423354726581e-02  1.3132310877589776e-02  1.0502301452244229e-02  8.3864628370650778e-03  6.7693218741736927e-03  5.6313787719124691e-03  4.9550084955861679e-03  4.7294411200436426e-03  6.4878520077984364e-02  6.4493923111075102e-02  6.3027323265721011e-02  6.0562458303129431e-02  5.7224080724765251e-02  5.3170700159826161e-02  4.8583998567245115e-02  4.3656524086467807e-02  3.8579195538055229e-02  3.3529966358223633e-02  2.8664702909475009e-02  2.4110959052911034e-02  1.9964925329257026e-02  1.6291449039559664e-02  1.3126704611504782e-02  1.0482869533169081e-02  8.3540381277201290e-03  6.7225731944987417e-03  5.5651286756136353e-03  4.8576391950429145e-03  4.5786216058597432e-03  </DataArray> 
</PointData> 
</Piece>
</UnstructuredGrid>
</VTKFile>