<?xml version="1.0"?>
<VTKFile type="UnstructuredGrid"  version="0.1"  >
<UnstructuredGrid>
<Piece  NumberOfPoints="441" NumberOfCells="800">
<Points>
<DataArray  type="Float64"  NumberOfComponents="3"  format="ascii">-2 -2 0  -1.8 -2 0  -1.6 -2 0  -1.4 -2 0  -1.2 -2 0  -1 -2 0  -0.8 -2 0  -0.6000000000000001 -2 0  -0.3999999999999999 -2 0  -0.2 -2 0  0 -2 0  0.2000000000000002 -2 0  0.3999999999999999 -2 0  0.6000000000000001 -2 0  0.7999999999999998 -2 0  1 -2 0  1.2 -2 0  1.4 -2 0  1.6 -2 0  1.8 -2 0  2 -2 0  -2 -1.8 0  -1.8 -1.8 0  -1.6 -1.8 0  -1.4 -1.8 0  -1.2 -1.8 0  -1 -1.8 0  -0.8 -1.8 0  -0.6000000000000001 -1.8 0  -0.3999999999999999 -1.8 0  -0.2 -1.8 0  0 -1.8 0  0.2000000000000002 -1.8 0  0.3999999999999999 -1.8 0  0.6000000000000001 -1.8 0  0.7999999999999998 -1.8 0  1 -1.8 0  1.2 -1.8 0  1.4 -1.8 0  1.6 -1.8 0  1.8 -1.8 0  2 -1.8 0  -2 -1.6 0  -1.8 -1.6 0  -1.6 -1.6 0  -1.4 -1.6 0  -1.2 -1.6 0  -1 -1.6 0  -0.8 -1.6 0  -0.6000000000000001 -1.6 0  -0.3999999999999999 -1.6 0  -0.2 -1.6 0  0 -1.6 0  0.2000000000000002 -1.6 0  0.3999999999999999 -1.6 0  0.6000000000000001 -1.6 0  0.7999999999999998 -1.6 0  1 -1.6 0  1.2 -1.6 0  1.4 -1.6 0  1.6 -1.6 0  1.8 -1.6 0  2 -1.6 0  -2 -1.4 0  -1.8 -1.4 0  -1.6 -1.4 0  -1.4 -1.4 0  -1.2 -1.4 0  -1 -1.4 0  -0.8 -1.4 0  -0.6000000000000001 -1.4 0  -0.3999999999999999 -1.4 0  -0.2 -1.4 0  0 -1.4 0  0.2000000000000002 -1.4 0  0.3999999999999999 -1.4 0  0.6000000000000001 -1.4 0  0.7999999999999998 -1.4 0  1 -1.4 0  1.2 -1.4 0  1.4 -1.4 0  1.6 -1.4 0  1.8 -1.4 0  2 -1.4 0  -2 -1.2 0  -1.8 -1.2 0  -1.6 -1.2 0  -1.4 -1.2 0  -1.2 -1.2 0  -1 -1.2 0  -0.8 -1.2 0  -0.6000000000000001 -1.2 0  -0.3999999999999999 -1.2 0  -0.2 -1.2 0  0 -1.2 0  0.2000000000000002 -1.2 0  0.3999999999999999 -1.2 0  0.6000000000000001 -1.2 0  0.7999999999999998 -1.2 0  1 -1.2 0  1.2 -1.2 0  1.4 -1.2 0  1.6 -1.2 0  1.8 -1.2 0  2 -1.2 0  -2 -1 0  -1.8 -1 0  -1.6 -1 0  -1.4 -1 0  -1.2 -1 0  -1 -1 0  -0.8 -1 0  -0.6000000000000001 -1 0  -0.3999999999999999 -1 0  -0.2 -1 0  0 -1 0  0.2000000000000002 -1 0  0.3999999999999999 -1 0  0.6000000000000001 -1 0  0.7999999999999998 -1 0  1 -1 0  1.2 -1 0  1.4 -1 0  1.6 -1 0  1.8 -1 0  2 -1 0  -2 -0.8 0  -1.8 -0.8 0  -1.6 -0.8 0  -1.4 -0.8 0  -1.2 -0.8 0  -1 -0.8 0  -0.8 -0.8 0  -0.6000000000000001 -0.8 0  -0.3999999999999999 -0.8 0  -0.2 -0.8 0  0 -0.8 0  0.2000000000000002 -0.8 0  0.3999999999999999 -0.8 0  0.6000000000000001 -0.8 0  0.7999999999999998 -0.8 0  1 -0.8 0  1.2 -0.8 0  1.4 -0.8 0  1.6 -0.8 0  1.8 -0.8 0  2 -0.8 0  -2 -0.6000000000000001 0  -1.8 -0.6000000000000001 0  -1.6 -0.6000000000000001 0  -1.4 -0.6000000000000001 0  -1.2 -0.6000000000000001 0  -1 -0.6000000000000001 0  -0.8 -0.6000000000000001 0  -0.6000000000000001 -0.6000000000000001 0  -0.3999999999999999 -0.6000000000000001 0  -0.2 -0.6000000000000001 0  0 -0.6000000000000001 0  0.2000000000000002 -0.6000000000000001 0  0.3999999999999999 -0.6000000000000001 0  0.6000000000000001 -0.6000000000000001 0  0.7999999999999998 -0.6000000000000001 0  1 -0.6000000000000001 0  1.2 -0.6000000000000001 0  1.4 -0.6000000000000001 0  1.6 -0.6000000000000001 0  1.8 -0.6000000000000001 0  2 -0.6000000000000001 0  -2 -0.3999999999999999 0  -1.8 -0.3999999999999999 0  -1.6 -0.3999999999999999 0  -1.4 -0.3999999999999999 0  -1.2 -0.3999999999999999 0  -1 -0.3999999999999999 0  -0.8 -0.3999999999999999 0  -0.6000000000000001 -0.3999999999999999 0  -0.3999999999999999 -0.3999999999999999 0  -0.2 -0.3999999999999999 0  0 -0.3999999999999999 0  0.2000000000000002 -0.3999999999999999 0  0.3999999999999999 -0.3999999999999999 0  0.6000000000000001 -0.3999999999999999 0  0.7999999999999998 -0.3999999999999999 0  1 -0.3999999999999999 0  1.2 -0.3999999999999999 0  1.4 -0.3999999999999999 0  1.6 -0.3999999999999999 0  1.8 -0.3999999999999999 0  2 -0.3999999999999999 0  -2 -0.2 0  -1.8 -0.2 0  -1.6 -0.2 0  -1.4 -0.2 0  -1.2 -0.2 0  -1 -0.2 0  -0.8 -0.2 0  -0.6000000000000001 -0.2 0  -0.3999999999999999 -0.2 0  -0.2 -0.2 0  0 -0.2 0  0.2000000000000002 -0.2 0  0.3999999999999999 -0.2 0  0.6000000000000001 -0.2 0  0.7999999999999998 -0.2 0  1 -0.2 0  1.2 -0.2 0  1.4 -0.2 0  1.6 -0.2 0  1.8 -0.2 0  2 -0.2 0  -2 0 0  -1.8 0 0  -1.6 0 0  -1.4 0 0  -1.2 0 0  -1 0 0  -0.8 0 0  -0.6000000000000001 0 0  -0.3999999999999999 0 0  -0.2 0 0  0 0 0  0.2000000000000002 0 0  0.3999999999999999 0 0  0.6000000000000001 0 0  0.7999999999999998 0 0  1 0 0  1.2 0 0  1.4 0 0  1.6 0 0  1.8 0 0  2 0 0  -2 0.2000000000000002 0  -1.8 0.2000000000000002 0  -1.6 0.2000000000000002 0  -1.4 0.2000000000000002 0  -1.2 0.2000000000000002 0  -1 0.2000000000000002 0  -0.8 0.2000000000000002 0  -0.6000000000000001 0.2000000000000002 0  -0.3999999999999999 0.2000000000000002 0  -0.2 0.2000000000000002 0  0 0.2000000000000002 0  0.2000000000000002 0.2000000000000002 0  0.3999999999999999 0.2000000000000002 0  0.6000000000000001 0.2000000000000002 0  0.7999999999999998 0.2000000000000002 0  1 0.2000000000000002 0  1.2 0.2000000000000002 0  1.4 0.2000000000000002 0  1.6 0.2000000000000002 0  1.8 0.2000000000000002 0  2 0.2000000000000002 0  -2 0.3999999999999999 0  -1.8 0.3999999999999999 0  -1.6 0.3999999999999999 0  -1.4 0.3999999999999999 0  -1.2 0.3999999999999999 0  -1 0.3999999999999999 0  -0.8 0.3999999999999999 0  -0.6000000000000001 0.3999999999999999 0  -0.3999999999999999 0.3999999999999999 0  -0.2 0.3999999999999999 0  0 0.3999999999999999 0  0.2000000000000002 0.3999999999999999 0  0.3999999999999999 0.3999999999999999 0  0.6000000000000001 0.3999999999999999 0  0.7999999999999998 0.3999999999999999 0  1 0.3999999999999999 0  1.2 0.3999999999999999 0  1.4 0.3999999999999999 0  1.6 0.3999999999999999 0  1.8 0.3999999999999999 0  2 0.3999999999999999 0  -2 0.6000000000000001 0  -1.8 0.6000000000000001 0  -1.6 0.6000000000000001 0  -1.4 0.6000000000000001 0  -1.2 0.6000000000000001 0  -1 0.6000000000000001 0  -0.8 0.6000000000000001 0  -0.6000000000000001 0.6000000000000001 0  -0.3999999999999999 0.6000000000000001 0  -0.2 0.6000000000000001 0  0 0.6000000000000001 0  0.2000000000000002 0.6000000000000001 0  0.3999999999999999 0.6000000000000001 0  0.6000000000000001 0.6000000000000001 0  0.7999999999999998 0.6000000000000001 0  1 0.6000000000000001 0  1.2 0.6000000000000001 0  1.4 0.6000000000000001 0  1.6 0.6000000000000001 0  1.8 0.6000000000000001 0  2 0.6000000000000001 0  -2 0.7999999999999998 0  -1.8 0.7999999999999998 0  -1.6 0.7999999999999998 0  -1.4 0.7999999999999998 0  -1.2 0.7999999999999998 0  -1 0.7999999999999998 0  -0.8 0.7999999999999998 0  -0.6000000000000001 0.7999999999999998 0  -0.3999999999999999 0.7999999999999998 0  -0.2 0.7999999999999998 0  0 0.7999999999999998 0  0.2000000000000002 0.7999999999999998 0  0.3999999999999999 0.7999999999999998 0  0.6000000000000001 0.7999999999999998 0  0.7999999999999998 0.7999999999999998 0  1 0.7999999999999998 0  1.2 0.7999999999999998 0  1.4 0.7999999999999998 0  1.6 0.7999999999999998 0  1.8 0.7999999999999998 0  2 0.7999999999999998 0  -2 1 0  -1.8 1 0  -1.6 1 0  -1.4 1 0  -1.2 1 0  -1 1 0  -0.8 1 0  -0.6000000000000001 1 0  -0.3999999999999999 1 0  -0.2 1 0  0 1 0  0.2000000000000002 1 0  0.3999999999999999 1 0  0.6000000000000001 1 0  0.7999999999999998 1 0  1 1 0  1.2 1 0  1.4 1 0  1.6 1 0  1.8 1 0  2 1 0  -2 1.2 0  -1.8 1.2 0  -1.6 1.2 0  -1.4 1.2 0  -1.2 1.2 0  -1 1.2 0  -0.8 1.2 0  -0.6000000000000001 1.2 0  -0.3999999999999999 1.2 0  -0.2 1.2 0  0 1.2 0  0.2000000000000002 1.2 0  0.3999999999999999 1.2 0  0.6000000000000001 1.2 0  0.7999999999999998 1.2 0  1 1.2 0  1.2 1.2 0  1.4 1.2 0  1.6 1.2 0  1.8 1.2 0  2 1.2 0  -2 1.4 0  -1.8 1.4 0  -1.6 1.4 0  -1.4 1.4 0  -1.2 1.4 0  -1 1.4 0  -0.8 1.4 0  -0.6000000000000001 1.4 0  -0.3999999999999999 1.4 0  -0.2 1.4 0  0 1.4 0  0.2000000000000002 1.4 0  0.3999999999999999 1.4 0  0.6000000000000001 1.4 0  0.7999999999999998 1.4 0  1 1.4 0  1.2 1.4 0  1.4 1.4 0  1.6 1.4 0  1.8 1.4 0  2 1.4 0  -2 1.6 0  -1.8 1.6 0  -1.6 1.6 0  -1.4 1.6 0  -1.2 1.6 0  -1 1.6 0  -0.8 1.6 0  -0.6000000000000001 1.6 0  -0.3999999999999999 1.6 0  -0.2 1.6 0  0 1.6 0  0.2000000000000002 1.6 0  0.3999999999999999 1.6 0  0.6000000000000001 1.6 0  0.7999999999999998 1.6 0  1 1.6 0  1.2 1.6 0  1.4 1.6 0  1.6 1.6 0  1.8 1.6 0  2 1.6 0  -2 1.8 0  -1.8 1.8 0  -1.6 1.8 0  -1.4 1.8 0  -1.2 1.8 0  -1 1.8 0  -0.8 1.8 0  -0.6000000000000001 1.8 0  -0.3999999999999999 1.8 0  -0.2 1.8 0  0 1.8 0  0.2000000000000002 1.8 0  0.3999999999999999 1.8 0  0.6000000000000001 1.8 0  0.7999999999999998 1.8 0  1 1.8 0  1.2 1.8 0  1.4 1.8 0  1.6 1.8 0  1.8 1.8 0  2 1.8 0  -2 2 0  -1.8 2 0  -1.6 2 0  -1.4 2 0  -1.2 2 0  -1 2 0  -0.8 2 0  -0.6000000000000001 2 0  -0.3999999999999999 2 0  -0.2 2 0  0 2 0  0.2000000000000002 2 0  0.3999999999999999 2 0  0.6000000000000001 2 0  0.7999999999999998 2 0  1 2 0  1.2 2 0  1.4 2 0  1.6 2 0  1.8 2 0  2 2 0  </DataArray>
</Points>
<Cells>
[...]
<PointData  Scalars="f_8"> 
<DataArray  type="Float64"  Name="f_8"  format="ascii">1.0106347983450552e-01  9.8535197528467566e-02  9.2474496923304270e-02  8.3536203685122518e-02  7.2649458196678479e-02  6.0846364111395712e-02  4.9097545569532511e-02  3.8186964712715141e-02  2.8643879641096659e-02  2.0732985726101397e-02  1.4490259877202623e-02  9.7850707574079800e-03  6.3890028198829432e-03  4.0365953732495108e-03  2.4699573310841059e-03  1.4654835150871306e-03  8.4522200660416575e-04  4.7749754655139964e-04  2.7163514868040864e-04  1.7081822880212413e-04  1.4597063538189864e-04  1.0021086801554684e-01  9.8221723193634203e-02  9.2532160796975765e-02  8.3820556934704610e-02  7.3034808438298626e-02  6.1231005910270725e-02  4.9410310500895137e-02  3.8389881937040786e-02  2.8729213034245488e-02  2.0715645382092113e-02  1.4398056762923817e-02  9.6494462894795591e-03  6.2380982301917928e-03  3.8913952514294456e-03  2.3432438958554988e-03  1.3627444169088878e-03  7.6649451752843899e-04  4.1927315721619602e-04  2.2820200265225918e-04  1.3461813448578642e-04  1.0657825288460366e-04  1.0017647133059387e-01  9.8224664386360988e-02  9.2599722505003410e-02  8.3942192182850914e-02  7.3180821385239639e-02  6.1367509911236857e-02  4.9509938516046743e-02  3.8437559936220111e-02  2.8723135873802402e-02  2.0664603683138983e-02  1.4316874180849789e-02  9.5542826134049959e-03  6.1428685111885317e-03  3.8058397648535868e-03  2.2725492250099321e-03  1.3082347427145972e-03  7.2681062606099508e-04  3.9155794804148836e-04  2.0900474281305821e-04  1.2042832002618240e-04  9.4070102870658605e-05  1.0022575750157055e-01  9.8277152849707283e-02  9.2657947594691384e-02  8.4002893781265242e-02  7.3236340487184581e-02  6.1409063524413977e-02  4.9530891855657642e-02  3.8435469330952488e-02  2.8700109214956412e-02  2.0626222628900282e-02  1.4270347984150444e-02  9.5065818046382675e-03  6.0993856428320312e-03  3.7697982696540135e-03  2.2450854060802497e-03  1.2889055261552514e-03  7.1424609205632706e-04  3.8404169211176873e-04  2.0486680437739290e-04  1.1822639166296625e-04  9.2591484895137425e-05  1.0025309358773163e-01  9.8304275016227904e-02  9.2683582714894769e-02  8.4025175284165352e-02  7.3253074184448180e-02  6.1418386648896060e-02  4.9531952189725989e-02  3.8428787047671963e-02  2.8687474544118807e-02  2.0610203461198667e-02  1.4253627827315754e-02  9.4913731926441064e-03  6.0870856824885551e-03  3.7609303842103016e-03  2.2394660125137989e-03  1.2859221651086519e-03  7.1313688654899444e-04  3.8410424177811675e-04  2.0557083615891248e-04  1.1923900108365145e-04  9.3739299859982986e-05  1.0026048862155203e-01  9.8311399608561209e-02  9.2689842975495304e-02  8.4029995969969726e-02  7.3255994323905824e-02  6.1419186611307089e-02  4.9530748421791566e-02  3.8426036019463705e-02  2.8683869755943180e-02  2.0606500446752312e-02  1.4250462835640717e-02  9.4891381760054232e-03  6.0858919833429873e-03  3.7606551708418358e-03  2.2398478811230050e-03  1.2866645782613536e-03  7.1398793779842780e-04  3.8489931350448102e-04  2.0624121626182599e-04  1.1979856549219496e-04  9.4262059349596106e-05  1.0026132822977528e-01  9.8312142695967580e-02  9.2690385858473875e-02  8.4030261592648120e-02  7.3255952001495178e-02  6.1418867045596147e-02  4.9530244688144591e-02  3.8425484793899671e-02  2.8683415992273552e-02  2.0606257533433703e-02  1.4250483321381593e-02  9.4894055662183927e-03  6.0863346915819017e-03  3.7611747443290280e-03  2.2403494213366301e-03  1.2870789545512938e-03  7.1428093187069907e-04  3.8506889828101925e-04  2.0630811098224753e-04  1.1979608284789433e-04  9.4229659089837647e-05  1.0026125370732081e-01  9.8312048781493272e-02  9.2690271852634010e-02  8.4030132867107823e-02  7.3255820888024833e-02  6.1418751858963283e-02  4.9530166241114254e-02  3.8425460762432292e-02  2.8683454853024645e-02  2.0606354595525383e-02  1.4250620877388483e-02  9.4895574804911859e-03  6.0864737388326229e-03  3.7612798301617941e-03  2.2404100539522406e-03  1.2870957384047135e-03  7.1426257798294917e-04  3.8502744278116912e-04  2.0625431118233550e-04  1.1973647408859105e-04  9.4165962197451751e-05  1.0026122953990513e-01  9.8312023639682486e-02  9.2690248041794931e-02  8.4030113148906557e-02  7.3255808030378788e-02  6.1418747987683417e-02  4.9530172101414680e-02  3.8425475123568031e-02  2.8683474365350667e-02  2.0606374331238873e-02  1.4250635527806413e-02  9.4895628543287119e-03  6.0864680017949126e-03  3.7612639898386394e-03  2.2403875091441686e-03  1.2870711070876210e-03  7.1424028055546568e-04  3.8501052806840999e-04  2.0624380749272340e-04  1.1973127486356000e-04  9.4163076186072140e-05  1.0026123149425306e-01  9.8312026053717083e-02  9.2690251004333174e-02  8.4030116663661433e-02  7.3255811952419522e-02  6.1418751977425100e-02  4.9530175623182592e-02  3.8425477514148883e-02  2.8683474981128561e-02  2.0606372748415897e-02  1.4250631731071254e-02  9.4895573300867973e-03  6.0864616743454281e-03  3.7612580014868358e-03  2.2403829186707605e-03  1.2870686236997363e-03  7.1424013595498749e-04  3.8501252374333040e-04  2.0624749186223395e-04  1.1973614602525247e-04  9.4168696227724070e-05  1.0026123197674087e-01  9.8312026605280337e-02  9.2690251582303693e-02  8.4030117205460400e-02  7.3255812382896829e-02  6.1418752221983855e-02  4.9530175626540017e-02  3.8425477262028156e-02  2.8683474518818919e-02  2.0606372187449130e-02  1.4250631235711865e-02  9.4895570809152632e-03  6.0864618161902955e-03  3.7612585928841298e-03  2.2403839037496232e-03  1.2870698412595601e-03  7.1424136653939054e-04  3.8501356066962810e-04  2.0624821374390584e-04  1.1973656913589180e-04  9.4168992047500094e-05  1.0026123180439155e-01  9.8312026417235118e-02  9.2690251337362570e-02  8.4030116894792325e-02  7.3255812026934500e-02  6.1418751862295604e-02  4.9530175314797073e-02  3.8425477048172570e-02  2.8683474440343890e-02  2.0606372261307553e-02  1.4250631453907330e-02  9.4895574104660457e-03  6.0864622038260497e-03  3.7612589742075167e-03  2.2403842154162675e-03  1.2870700332853807e-03  7.1424141104447895e-04  3.8501345419709868e-04  2.0624797295239533e-04  1.1973622309196071e-04  9.4168576565764232e-05  1.0026123660396095e-01  9.8312030482786625e-02  9.2690254468749803e-02  8.4030118991919520e-02  7.3255813073457104e-02  6.1418751923363137e-02  4.9530174536432388e-02  3.8425475646180152e-02  2.8683472673276377e-02  2.0606370391063132e-02  1.4250629704505195e-02  9.4895559373189536e-03  6.0864610819400021e-03  3.7612582064510784e-03  2.2403837549435433e-03  1.2870698104074309e-03  7.1424135540027335e-04  3.8501350695446432e-04  2.0624808876349189e-04  1.1973636546610586e-04  9.4168711928128344e-05  1.0026123396533178e-01  9.8312028044332048e-02  9.2690254373276548e-02  8.4030122273258720e-02  7.3255819636124556e-02  6.1418760777200092e-02  4.9530184191966434e-02  3.8425484557387007e-02  2.8683479617840950e-02  2.0606374704620949e-02  1.4250631332338150e-02  9.4895553226324036e-03  6.0864589545061255e-03  3.7612553525307431e-03  2.2403808358123578e-03  1.2870672637844854e-03  7.1423937931044013e-04  3.8501210281483467e-04  2.0624713381181187e-04  1.1973568935807097e-04  9.4168160393007697e-05  1.0026104831195969e-01  9.8311861356222080e-02  9.2690117766513300e-02  8.4030022454817652e-02  7.3255759223934708e-02  6.1418738610010216e-02  4.9530195664823591e-02  3.8425522202472445e-02  2.8683534128924659e-02  2.0606436368812171e-02  1.4250691556925914e-02  9.4896078259261527e-03  6.0865003009144148e-03  3.7612847714148844e-03  2.2403995167725073e-03  1.2870774504330574e-03  7.1424356315223821e-04  3.8501249847924189e-04  2.0624547115034693e-04  1.1973324265875992e-04  9.4165873302424059e-05  1.0026070806335921e-01  9.8311550838542788e-02  9.2689792840164001e-02  8.4029655685725943e-02  7.3255348116702840e-02  6.1418305949653966e-02  4.9529781282789745e-02  3.8425169192627083e-02  2.8683275037872356e-02  2.0606284509960951e-02  1.4250639795885214e-02  9.4896337922580152e-03  6.0865747802801747e-03  3.7613797433016052e-03  2.2404935012732747e-03  1.2871575238643334e-03  7.1430472169347454e-04  3.8505559821108069e-04  2.0627482946231328e-04  1.1975447867162452e-04  9.4184046196758365e-05  1.0026453115669025e-01  9.8315114878568893e-02  9.2692570077160044e-02  8.4031238570211553e-02  7.3255521169869456e-02  6.1417093377766512e-02  4.9527438320565685e-02  3.8422112002340483e-02  2.8679973289086801e-02  2.0603154919126218e-02  1.4247973288656996e-02  9.4875705879443120e-03  6.0851220687436480e-03  3.7604544488260374e-03  2.2399705008590751e-03  1.2869089782885119e-03  7.1422413544720300e-04  3.8506687788081767e-04  2.0633014568695497e-04  1.1982536900667510e-04  9.4249255083950678e-05  1.0028926742289565e-01  9.8338783346632139e-02  9.2713469082490563e-02  8.4047512431033297e-02  7.3265550197385190e-02  6.1419997802046364e-02  4.9523396610927840e-02  3.8412341322549788e-02  2.8666401253243757e-02  2.0587935674750538e-02  1.4233029553982226e-02  9.4742919946938838e-03  6.0742639860293761e-03  3.7522054726286157e-03  2.2341164760990725e-03  1.2830187919507007e-03  7.1180415175678803e-04  3.8365956055571221e-04  2.0555566380056465e-04  1.1937811650632190e-04  9.3865910167168612e-05  1.0035004037588191e-01  9.8401018006337285e-02  9.2777337799506462e-02  8.4108271473657681e-02  7.3315773743079862e-02  6.1452718052784662e-02  4.9534606431030345e-02  3.8402080941114587e-02  2.8638380541725780e-02  2.0548161750913882e-02  1.4188112048818660e-02  9.4300093765673134e-03  6.0347157265590095e-03  3.7195931725701242e-03  2.2089983873711540e-03  1.2648040869089876e-03  6.9927542283527598e-04  3.7538651198772740e-04  2.0014414332572358e-04  1.1556001059387956e-04  9.0472542453650883e-05  1.0034766546450374e-01  9.8437668438698694e-02  9.2872661200397805e-02  8.4247939060201407e-02  7.3469445486663232e-02  6.1588186147389937e-02  4.9627520127419882e-02  3.8440706152711383e-02  2.8623743402905463e-02  2.0490881660328624e-02  1.4103725279913137e-02  9.3344659017265755e-03  5.9411586096823690e-03  3.6368077271505483e-03  2.1413249774666298e-03  1.2129883557012761e-03  6.6168186327824469e-04  3.4913219945171035e-04  1.8190400371035341e-04  1.0196874709856877e-04  7.8169471441525971e-05  9.9511093446185458e-02  9.8131028054642438e-02  9.2937005844761680e-02  8.4543851551250104e-02  7.3871943147244462e-02  6.1992835460996466e-02  4.9958782883154848e-02  3.8656590640739043e-02  2.8714289789464473e-02  2.0471070737840737e-02  1.4003319683341099e-02  9.1877915424948813e-03  5.7791670068997273e-03  3.4825136968088832e-03  2.0084977821319184e-03  1.1071829317684180e-03  5.8243379441587947e-04  2.9228213654052877e-04  1.4134098082304759e-04  7.0376295694801942e-05  4.6478856930133614e-05  </DataArray> 
</PointData> 
</Piece>
</UnstructuredGrid>
</VTKFile>