<?xml version="1.0"?>
<VTKFile type="UnstructuredGrid"  version="0.1"  >
<UnstructuredGrid>
<Piece  NumberOfPoints="441" NumberOfCells="800">
<Points>
<DataArray  type="Float64"  NumberOfComponents="3"  format="ascii">-2 -2 0  -1.8 -2 0  -1.6 -2 0  -1.4 -2 0  -1.2 -2 0  -1 -2 0  -0.8 -2 0  -0.6000000000000001 -2 0  -0.3999999999999999 -2 0  -0.2 -2 0  0 -2 0  0.2000000000000002 -2 0  0.3999999999999999 -2 0  0.6000000000000001 -2 0  0.7999999999999998 -2 0  1 -2 0  1.2 -2 0  1.4 -2 0  1.6 -2 0  1.8 -2 0  2 -2 0  -2 -1.8 0  -1.8 -1.8 0  -1.6 -1.8 0  -1.4 -1.8 0  -1.2 -1.8 0  -1 -1.8 0  -0.8 -1.8 0  -0.6000000000000001 -1.8 0  -0.3999999999999999 -1.8 0  -0.2 -1.8 0  0 -1.8 0  0.2000000000000002 -1.8 0  0.3999999999999999 -1.8 0  0.6000000000000001 -1.8 0  0.7999999999999998 -1.8 0  1 -1.8 0  1.2 -1.8 0  1.4 -1.8 0  1.6 -1.8 0  1.8 -1.8 0  2 -1.8 0  -2 -1.6 0  -1.8 -1.6 0  -1.6 -1.6 0  -1.4 -1.6 0  -1.2 -1.6 0  -1 -1.6 0  -0.8 -1.6 0  -0.6000000000000001 -1.6 0  -0.3999999999999999 -1.6 0  -0.2 -1.6 0  0 -1.6 0  0.2000000000000002 -1.6 0  0.3999999999999999 -1.6 0  0.6000000000000001 -1.6 0  0.7999999999999998 -1.6 0  1 -1.6 0  1.2 -1.6 0  1.4 -1.6 0  1.6 -1.6 0  1.8 -1.6 0  2 -1.6 0  -2 -1.4 0  -1.8 -1.4 0  -1.6 -1.4 0  -1.4 -1.4 0  -1.2 -1.4 0  -1 -1.4 0  -0.8 -1.4 0  -0.6000000000000001 -1.4 0  -0.3999999999999999 -1.4 0  -0.2 -1.4 0  0 -1.4 0  0.2000000000000002 -1.4 0  0.3999999999999999 -1.4 0  0.6000000000000001 -1.4 0  0.7999999999999998 -1.4 0  1 -1.4 0  1.2 -1.4 0  1.4 -1.4 0  1.6 -1.4 0  1.8 -1.4 0  2 -1.4 0  -2 -1.2 0  -1.8 -1.2 0  -1.6 -1.2 0  -1.4 -1.2 0  -1.2 -1.2 0  -1 -1.2 0  -0.8 -1.2 0  -0.6000000000000001 -1.2 0  -0.3999999999999999 -1.2 0  -0.2 -1.2 0  0 -1.2 0  0.2000000000000002 -1.2 0  0.3999999999999999 -1.2 0  0.6000000000000001 -1.2 0  0.7999999999999998 -1.2 0  1 -1.2 0  1.2 -1.2 0  1.4 -1.2 0  1.6 -1.2 0  1.8 -1.2 0  2 -1.2 0  -2 -1 0  -1.8 -1 0  -1.6 -1 0  -1.4 -1 0  -1.2 -1 0  -1 -1 0  -0.8 -1 0  -0.6000000000000001 -1 0  -0.3999999999999999 -1 0  -0.2 -1 0  0 -1 0  0.2000000000000002 -1 0  0.3999999999999999 -1 0  0.6000000000000001 -1 0  0.7999999999999998 -1 0  1 -1 0  1.2 -1 0  1.4 -1 0  1.6 -1 0  1.8 -1 0  2 -1 0  -2 -0.8 0  -1.8 -0.8 0  -1.6 -0.8 0  -1.4 -0.8 0  -1.2 -0.8 0  -1 -0.8 0  -0.8 -0.8 0  -0.6000000000000001 -0.8 0  -0.3999999999999999 -0.8 0  -0.2 -0.8 0  0 -0.8 0  0.2000000000000002 -0.8 0  0.3999999999999999 -0.8 0  0.6000000000000001 -0.8 0  0.7999999999999998 -0.8 0  1 -0.8 0  1.2 -0.8 0  1.4 -0.8 0  1.6 -0.8 0  1.8 -0.8 0  2 -0.8 0  -2 -0.6000000000000001 0  -1.8 -0.6000000000000001 0  -1.6 -0.6000000000000001 0  -1.4 -0.6000000000000001 0  -1.2 -0.6000000000000001 0  -1 -0.6000000000000001 0  -0.8 -0.6000000000000001 0  -0.6000000000000001 -0.6000000000000001 0  -0.3999999999999999 -0.6000000000000001 0  -0.2 -0.6000000000000001 0  0 -0.6000000000000001 0  0.2000000000000002 -0.6000000000000001 0  0.3999999999999999 -0.6000000000000001 0  0.6000000000000001 -0.6000000000000001 0  0.7999999999999998 -0.6000000000000001 0  1 -0.6000000000000001 0  1.2 -0.6000000000000001 0  1.4 -0.6000000000000001 0  1.6 -0.6000000000000001 0  1.8 -0.6000000000000001 0  2 -0.6000000000000001 0  -2 -0.3999999999999999 0  -1.8 -0.3999999999999999 0  -1.6 -0.3999999999999999 0  -1.4 -0.3999999999999999 0  -1.2 -0.3999999999999999 0  -1 -0.3999999999999999 0  -0.8 -0.3999999999999999 0  -0.6000000000000001 -0.3999999999999999 0  -0.3999999999999999 -0.3999999999999999 0  -0.2 -0.3999999999999999 0  0 -0.3999999999999999 0  0.2000000000000002 -0.3999999999999999 0  0.3999999999999999 -0.3999999999999999 0  0.6000000000000001 -0.3999999999999999 0  0.7999999999999998 -0.3999999999999999 0  1 -0.3999999999999999 0  1.2 -0.3999999999999999 0  1.4 -0.3999999999999999 0  1.6 -0.3999999999999999 0  1.8 -0.3999999999999999 0  2 -0.3999999999999999 0  -2 -0.2 0  -1.8 -0.2 0  -1.6 -0.2 0  -1.4 -0.2 0  -1.2 -0.2 0  -1 -0.2 0  -0.8 -0.2 0  -0.6000000000000001 -0.2 0  -0.3999999999999999 -0.2 0  -0.2 -0.2 0  0 -0.2 0  0.2000000000000002 -0.2 0  0.3999999999999999 -0.2 0  0.6000000000000001 -0.2 0  0.7999999999999998 -0.2 0  1 -0.2 0  1.2 -0.2 0  1.4 -0.2 0  1.6 -0.2 0  1.8 -0.2 0  2 -0.2 0  -2 0 0  -1.8 0 0  -1.6 0 0  -1.4 0 0  -1.2 0 0  -1 0 0  -0.8 0 0  -0.6000000000000001 0 0  -0.3999999999999999 0 0  -0.2 0 0  0 0 0  0.2000000000000002 0 0  0.3999999999999999 0 0  0.6000000000000001 0 0  0.7999999999999998 0 0  1 0 0  1.2 0 0  1.4 0 0  1.6 0 0  1.8 0 0  2 0 0  -2 0.2000000000000002 0  -1.8 0.2000000000000002 0  -1.6 0.2000000000000002 0  -1.4 0.2000000000000002 0  -1.2 0.2000000000000002 0  -1 0.2000000000000002 0  -0.8 0.2000000000000002 0  -0.6000000000000001 0.2000000000000002 0  -0.3999999999999999 0.2000000000000002 0  -0.2 0.2000000000000002 0  0 0.2000000000000002 0  0.2000000000000002 0.2000000000000002 0  0.3999999999999999 0.2000000000000002 0  0.6000000000000001 0.2000000000000002 0  0.7999999999999998 0.2000000000000002 0  1 0.2000000000000002 0  1.2 0.2000000000000002 0  1.4 0.2000000000000002 0  1.6 0.2000000000000002 0  1.8 0.2000000000000002 0  2 0.2000000000000002 0  -2 0.3999999999999999 0  -1.8 0.3999999999999999 0  -1.6 0.3999999999999999 0  -1.4 0.3999999999999999 0  -1.2 0.3999999999999999 0  -1 0.3999999999999999 0  -0.8 0.3999999999999999 0  -0.6000000000000001 0.3999999999999999 0  -0.3999999999999999 0.3999999999999999 0  -0.2 0.3999999999999999 0  0 0.3999999999999999 0  0.2000000000000002 0.3999999999999999 0  0.3999999999999999 0.3999999999999999 0  0.6000000000000001 0.3999999999999999 0  0.7999999999999998 0.3999999999999999 0  1 0.3999999999999999 0  1.2 0.3999999999999999 0  1.4 0.3999999999999999 0  1.6 0.3999999999999999 0  1.8 0.3999999999999999 0  2 0.3999999999999999 0  -2 0.6000000000000001 0  -1.8 0.6000000000000001 0  -1.6 0.6000000000000001 0  -1.4 0.6000000000000001 0  -1.2 0.6000000000000001 0  -1 0.6000000000000001 0  -0.8 0.6000000000000001 0  -0.6000000000000001 0.6000000000000001 0  -0.3999999999999999 0.6000000000000001 0  -0.2 0.6000000000000001 0  0 0.6000000000000001 0  0.2000000000000002 0.6000000000000001 0  0.3999999999999999 0.6000000000000001 0  0.6000000000000001 0.6000000000000001 0  0.7999999999999998 0.6000000000000001 0  1 0.6000000000000001 0  1.2 0.6000000000000001 0  1.4 0.6000000000000001 0  1.6 0.6000000000000001 0  1.8 0.6000000000000001 0  2 0.6000000000000001 0  -2 0.7999999999999998 0  -1.8 0.7999999999999998 0  -1.6 0.7999999999999998 0  -1.4 0.7999999999999998 0  -1.2 0.7999999999999998 0  -1 0.7999999999999998 0  -0.8 0.7999999999999998 0  -0.6000000000000001 0.7999999999999998 0  -0.3999999999999999 0.7999999999999998 0  -0.2 0.7999999999999998 0  0 0.7999999999999998 0  0.2000000000000002 0.7999999999999998 0  0.3999999999999999 0.7999999999999998 0  0.6000000000000001 0.7999999999999998 0  0.7999999999999998 0.7999999999999998 0  1 0.7999999999999998 0  1.2 0.7999999999999998 0  1.4 0.7999999999999998 0  1.6 0.7999999999999998 0  1.8 0.7999999999999998 0  2 0.7999999999999998 0  -2 1 0  -1.8 1 0  -1.6 1 0  -1.4 1 0  -1.2 1 0  -1 1 0  -0.8 1 0  -0.6000000000000001 1 0  -0.3999999999999999 1 0  -0.2 1 0  0 1 0  0.2000000000000002 1 0  0.3999999999999999 1 0  0.6000000000000001 1 0  0.7999999999999998 1 0  1 1 0  1.2 1 0  1.4 1 0  1.6 1 0  1.8 1 0  2 1 0  -2 1.2 0  -1.8 1.2 0  -1.6 1.2 0  -1.4 1.2 0  -1.2 1.2 0  -1 1.2 0  -0.8 1.2 0  -0.6000000000000001 1.2 0  -0.3999999999999999 1.2 0  -0.2 1.2 0  0 1.2 0  0.2000000000000002 1.2 0  0.3999999999999999 1.2 0  0.6000000000000001 1.2 0  0.7999999999999998 1.2 0  1 1.2 0  1.2 1.2 0  1.4 1.2 0  1.6 1.2 0  1.8 1.2 0  2 1.2 0  -2 1.4 0  -1.8 1.4 0  -1.6 1.4 0  -1.4 1.4 0  -1.2 1.4 0  -1 1.4 0  -0.8 1.4 0  -0.6000000000000001 1.4 0  -0.3999999999999999 1.4 0  -0.2 1.4 0  0 1.4 0  0.2000000000000002 1.4 0  0.3999999999999999 1.4 0  0.6000000000000001 1.4 0  0.7999999999999998 1.4 0  1 1.4 0  1.2 1.4 0  1.4 1.4 0  1.6 1.4 0  1.8 1.4 0  2 1.4 0  -2 1.6 0  -1.8 1.6 0  -1.6 1.6 0  -1.4 1.6 0  -1.2 1.6 0  -1 1.6 0  -0.8 1.6 0  -0.6000000000000001 1.6 0  -0.3999999999999999 1.6 0  -0.2 1.6 0  0 1.6 0  0.2000000000000002 1.6 0  0.3999999999999999 1.6 0  0.6000000000000001 1.6 0  0.7999999999999998 1.6 0  1 1.6 0  1.2 1.6 0  1.4 1.6 0  1.6 1.6 0  1.8 1.6 0  2 1.6 0  -2 1.8 0  -1.8 1.8 0  -1.6 1.8 0  -1.4 1.8 0  -1.2 1.8 0  -1 1.8 0  -0.8 1.8 0  -0.6000000000000001 1.8 0  -0.3999999999999999 1.8 0  -0.2 1.8 0  0 1.8 0  0.2000000000000002 1.8 0  0.3999999999999999 1.8 0  0.6000000000000001 1.8 0  0.7999999999999998 1.8 0  1 1.8 0  1.2 1.8 0  1.4 1.8 0  1.6 1.8 0  1.8 1.8 0  2 1.8 0  -2 2 0  -1.8 2 0  -1.6 2 0  -1.4 2 0  -1.2 2 0  -1 2 0  -0.8 2 0  -0.6000000000000001 2 0  -0.3999999999999999 2 0  -0.2 2 0  0 2 0  0.2000000000000002 2 0  0.3999999999999999 2 0  0.6000000000000001 2 0  0.7999999999999998 2 0  1 2 0  1.2 2 0  1.4 2 0  1.6 2 0  1.8 2 0  2 2 0  </DataArray>
</Points>
<Cells>
[...]
<PointData  Scalars="f_8"> 
<DataArray  type="Float64"  Name="f_8"  format="ascii">4.9669431957393367e-01  4.9357340205672895e-01  4.8582747473621235e-01  4.7364582270026634e-01  4.5738233446160331e-01  4.3752707064490848e-01  4.1467683213869072e-01  3.8950478576913455e-01  3.6273008549311320e-01  3.3508880907205618e-01  3.0730756706679763e-01  2.8008094239418874e-01  2.5405357291958885e-01  2.2980727298539944e-01  2.0785316981161958e-01  1.8862846646936454e-01  1.7249718636919870e-01  1.5975415246394506e-01  1.5063155825978064e-01  1.4530786488416095e-01  1.4391951834114075e-01  4.9530561599491441e-01  4.9281635014896524e-01  4.8548504279862226e-01  4.7358408239176897e-01  4.5751417629672780e-01  4.3779196753567778e-01  4.1502974345369448e-01  3.8991023501671601e-01  3.6315910663029577e-01  3.3551740366426264e-01  3.0771585995237577e-01  2.8045253880135024e-01  2.5437479651014722e-01  2.3006604627151839e-01  2.0803729959105727e-01  1.8872300666630434e-01  1.7248033093386664e-01  1.5959068366144696e-01  1.5026209541498667e-01  1.4463076179096732e-01  1.4275976907077967e-01  4.9499606548405090e-01  4.9255411875934441e-01  4.8531092864347863e-01  4.7350774214739805e-01  4.5752931512728257e-01  4.3788439347890507e-01  4.1518173057175550e-01  3.9010297741576710e-01  3.6337416006893786e-01  3.3573754849303872e-01  3.0792558589788482e-01  2.8063824388167585e-01  2.5452475266794272e-01  2.3017018415449603e-01  2.0808689271952444e-01  1.8871039340283155e-01  1.7239891940303567e-01  1.5943568179175308e-01  1.5003277759769912e-01  1.4433577983507220e-01  1.4242832571385688e-01  4.9490942614994826e-01  4.9247610992305013e-01  4.8525588677438275e-01  4.7348419024079558e-01  4.5754007209728537e-01  4.3792760681299064e-01  4.1525213945355249e-01  3.9019311909261478e-01  3.6347541095611924e-01  3.3584096722442974e-01  3.0802255804518930e-01  2.8072094492261140e-01  2.5458645863991464e-01  2.3020547230723104e-01  2.0809178773977327e-01  1.8868252659146828e-01  1.7233777409252982e-01  1.5934298868371899e-01  1.4991307781171437e-01  1.4419704709572947e-01  1.4228224026931946e-01  4.9488992872536441e-01  4.9245911917973223e-01  4.8524603403895200e-01  4.7348480224717981e-01  4.5755277027598679e-01  4.3795226518449193e-01  4.1528709068170777e-01  3.9023550346130215e-01  3.6352158499869325e-01  3.3588691247693098e-01  3.0806425148638789e-01  2.8075467035639190e-01  2.5460905267295497e-01  2.3021450962583417e-01  2.0808571761333161e-01  1.8866077500318226e-01  1.7230082233596858e-01  1.5929242824548503e-01  1.4985162199576657e-01  1.4412845361450030e-01  1.4221107438707883e-01  4.9488967250796834e-01  4.9245966660036478e-01  4.8524887015339924e-01  4.7349104035167106e-01  4.5756298422949754e-01  4.3796641956528920e-01  4.1530456269341293e-01  3.9025517676112509e-01  3.6354199034482931e-01  3.3590639053435634e-01  3.0808111695696544e-01  2.8076736205305469e-01  2.5461625994148912e-01  2.3021527066338932e-01  2.0807948902738141e-01  1.8864747393073841e-01  1.7228084242879693e-01  1.5926662905977690e-01  1.4982128862656152e-01  1.4409522140756520e-01  1.4217681477718355e-01  4.9489292482541325e-01  4.9246316445603588e-01  4.8525305780538952e-01  4.7349624530364864e-01  4.5756935914698993e-01  4.3797391211996972e-01  4.1531291539182086e-01  3.9026395366784639e-01  3.6355062419388312e-01  3.3591424214809168e-01  3.0808753888582585e-01  2.8077175945969707e-01  2.5461814348043393e-01  2.3021429799218679e-01  2.0807549325992888e-01  1.8864047857139224e-01  1.7227106302669318e-01  1.5925446208331553e-01  1.4980728812367716e-01  1.4408006424483288e-01  1.4216125599562196e-01  4.9489546243213450e-01  4.9246576674151565e-01  4.8525584116478016e-01  4.7349928946097863e-01  4.5757268863535278e-01  4.3797748607546894e-01  4.1531662678248832e-01  3.9026763751902288e-01  3.6355407311825683e-01  3.3591722670766028e-01  3.0808983003542845e-01  2.8077315047754342e-01  2.5461846925105996e-01  2.3021345012254729e-01  2.0807343014366816e-01  1.8863723006941149e-01  1.7226672985241751e-01  1.5924921026766689e-01  1.4980133912790525e-01  1.4407368144948354e-01  1.4215472847129432e-01  4.9489682842288130e-01  4.9246714472333220e-01  4.8525725522069846e-01  4.7350075271469877e-01  4.5757419780475650e-01  4.3797901848844656e-01  4.1531814023792357e-01  3.9026907292768231e-01  3.6355535946608986e-01  3.3591828760899195e-01  3.0809059101284941e-01  2.8077354611391014e-01  2.5461844947803663e-01  2.3021298509804711e-01  2.0807251338426694e-01  1.8863587970739432e-01  1.7226498805724380e-01  1.5924714099903073e-01  1.4979902447485455e-01  1.4407121686675559e-01  1.4215221726020455e-01  4.9489743466736735e-01  4.9246775090405159e-01  4.8525786403982613e-01  4.7350136380967384e-01  4.5757480626282565e-01  4.3797961406997243e-01  4.1531870741904048e-01  3.9026959174806219e-01  3.6355580705426399e-01  3.3591864017397555e-01  3.0809082604671112e-01  2.8077364454657089e-01  2.5461839755677046e-01  2.3021277581898916e-01  2.0807214736923227e-01  1.8863536548511992e-01  1.7226434176543329e-01  1.5924638556773651e-01  1.4979818838173894e-01  1.4407033257211413e-01  1.4215131943698320e-01  4.9489767995367889e-01  4.9246799533644708e-01  4.8525810742932579e-01  4.7350160500459154e-01  4.5757504267936999e-01  4.3797984145154051e-01  4.1531891986084946e-01  3.9026978198443973e-01  3.6355596696948111e-01  3.3591876146965638e-01  3.0809090098306324e-01  2.8077366667181453e-01  2.5461836234771673e-01  2.3021268117260613e-01  2.0807199390637326e-01  1.8863515664964761e-01  1.7226408372180640e-01  1.5924608691591696e-01  1.4979785971935022e-01  1.4406998594039791e-01  1.4215096769008148e-01  4.9489782015105088e-01  4.9246813707985343e-01  4.8525825245134691e-01  4.7350175401355116e-01  4.5757519483109305e-01  4.3797999403999904e-01  4.1531906826922926e-01  3.9026991990050591e-01  3.6355608683393503e-01  3.3591885509874003e-01  3.0809096029012584e-01  2.8077368440768752e-01  2.5461833278523865e-01  2.3021260067376748e-01  2.0807186132798342e-01  1.8863497356198777e-01  1.7226385443197906e-01  1.5924581830208953e-01  1.4979756089337068e-01  1.4406966776463850e-01  1.4215064218054696e-01  4.9489806233314665e-01  4.9246838666631587e-01  4.8525851856816937e-01  4.7350204254319472e-01  4.5757550676147174e-01  4.3798032449050223e-01  4.1531940630992653e-01  3.9027024916355074e-01  3.6355638681157437e-01  3.3591910294544103e-01  3.0809113290455742e-01  2.8077376056341580e-01  2.5461829510085787e-01  2.3021243725425836e-01  2.0807156695911402e-01  1.8863455038977356e-01  1.7226331210372411e-01  1.5924517358179938e-01  1.4979683679270928e-01  1.4406889225319108e-01  1.4214984655833957e-01  4.9489869414515647e-01  4.9246904250610335e-01  4.8525923448468750e-01  4.7350284329162390e-01  4.5757640022846668e-01  4.3798129853806794e-01  4.1532042836877647e-01  3.9027126848666249e-01  3.6355733894856790e-01  3.3591991576537589e-01  3.0809173339338281e-01  2.8077408163989054e-01  2.5461828180058188e-01  2.3021205178727386e-01  2.0807079231594852e-01  1.8863339232624496e-01  1.7226179946138892e-01  1.5924335699668338e-01  1.4979478591810658e-01  1.4406669168557129e-01  1.4214759071917055e-01  4.9490008721902029e-01  4.9247051254531282e-01  4.8526091352261314e-01  4.7350482567924757e-01  4.5757872477063588e-01  4.3798393897005233e-01  4.1532329294524728e-01  3.9027420801070650e-01  3.6356016148992731e-01  3.3592240571182863e-01  3.0809367233347346e-01  2.8077526879495901e-01  2.5461855217533508e-01  2.3021129075241420e-01  2.0806894585706545e-01  1.8863047261371271e-01  1.7225788568860739e-01  1.5923859161905440e-01  1.4978936656018804e-01  1.4406085914125225e-01  1.4214161370403486e-01  4.9490207666967689e-01  4.9247275218642039e-01  4.8526385596681004e-01  4.7350880229091846e-01  4.5758389178235093e-01  4.3799025177571904e-01  4.1533050920349707e-01  3.9028191558612613e-01  3.6356782448491248e-01  3.3592942082936567e-01  3.0809942819172947e-01  2.8077920210428597e-01  2.5462019640116768e-01  2.3021031460219132e-01  2.0806518033029922e-01  1.8862392625998139e-01  1.7224874810008220e-01  1.5922722517676674e-01  1.4977628634528023e-01  1.4404670110867773e-01  1.4212709207795196e-01  4.9490134557239818e-01  4.9247282826609046e-01  4.8526619646540958e-01  4.7351447483746451e-01  4.5759342374815548e-01  4.3800357667738454e-01  4.1534699988316109e-01  3.9030048259908667e-01  3.6358705471715919e-01  3.3594773302031367e-01  3.0811522649872858e-01  2.8079101447290866e-01  2.5462679011408040e-01  2.3021078610450749e-01  2.0805901964954249e-01  1.8861105766590880e-01  1.7222954798068479e-01  1.5920251574554800e-01  1.4974730064669370e-01  1.4401501259661423e-01  1.4209450350929811e-01  4.9488363127821700e-01  4.9245770577627285e-01  4.8525816394231014e-01  4.7351667403640590e-01  4.5760730021951368e-01  4.3802888057130429e-01  4.1538201391730367e-01  3.9034237497769236e-01  3.6363227839956686e-01  3.3599241654163731e-01  3.0815552218790204e-01  2.8082338699332943e-01  2.5464824196305430e-01  2.3021902701272823e-01  2.0805259324040076e-01  1.8858944033340172e-01  1.7219323040813436e-01  1.5915306534407414e-01  1.4968738253569397e-01  1.4394831924313106e-01  1.4202551804912547e-01  4.9480229125501979e-01  4.9238546264767613e-01  4.8520885149118659e-01  4.7349829251505915e-01  4.5762228374263036e-01  4.3807516697501042e-01  4.1545429507791859e-01  3.9043327188421334e-01  3.6373334585751355e-01  3.3609495021616809e-01  3.0825117008195274e-01  2.8090458326223544e-01  2.5470849358242487e-01  2.3025309672425023e-01  2.0805663556030868e-01  1.8856115928769007e-01  1.7213213342768943e-01  1.5906087729346552e-01  1.4956863517932983e-01  1.4381099768829728e-01  1.4188132921218433e-01  4.9450159702439617e-01  4.9213345167131534e-01  4.8504405264778283e-01  4.7342953613448785e-01  4.5764314247775334e-01  4.3817162461993853e-01  4.1560891552514645e-01  3.9062755899052998e-01  3.6394914252694938e-01  3.3631528467276428e-01  3.0846073595764628e-01  2.8108993816267258e-01  2.5485802453143469e-01  2.3035680290330823e-01  2.0810580845816004e-01  1.8854810099298033e-01  1.7205016458979527e-01  1.5890509073364656e-01  1.4933823445612232e-01  1.4351478262947620e-01  1.4154925123124135e-01  4.9312961773579184e-01  4.9138251798615118e-01  4.8470210001735536e-01  4.7336572827286871e-01  4.5777230182636969e-01  4.3843439070358947e-01  4.1596087690603045e-01  3.9103347636659619e-01  3.6438000242901702e-01  3.3674684705567293e-01  3.0887277088056292e-01  2.8146565453060701e-01  2.5518336655838275e-01  2.3061937017724093e-01  2.0829315574784935e-01  1.8864508232319616e-01  1.7203476316742938e-01  1.5874174190032303e-01  1.4896685438812365e-01  1.4283229176647508e-01  1.4037784339283657e-01  </DataArray> 
</PointData> 
</Piece>
</UnstructuredGrid>
</VTKFile>