<?xml version="1.0"?>
<VTKFile type="UnstructuredGrid"  version="0.1"  >
<UnstructuredGrid>
<Piece  NumberOfPoints="441" NumberOfCells="800">
<Points>
<DataArray  type="Float64"  NumberOfComponents="3"  format="ascii">-2 -2 0  -1.8 -2 0  -1.6 -2 0  -1.4 -2 0  -1.2 -2 0  -1 -2 0  -0.8 -2 0  -0.6000000000000001 -2 0  -0.3999999999999999 -2 0  -0.2 -2 0  0 -2 0  0.2000000000000002 -2 0  0.3999999999999999 -2 0  0.6000000000000001 -2 0  0.7999999999999998 -2 0  1 -2 0  1.2 -2 0  1.4 -2 0  1.6 -2 0  1.8 -2 0  2 -2 0  -2 -1.8 0  -1.8 -1.8 0  -1.6 -1.8 0  -1.4 -1.8 0  -1.2 -1.8 0  -1 -1.8 0  -0.8 -1.8 0  -0.6000000000000001 -1.8 0  -0.3999999999999999 -1.8 0  -0.2 -1.8 0  0 -1.8 0  0.2000000000000002 -1.8 0  0.3999999999999999 -1.8 0  0.6000000000000001 -1.8 0  0.7999999999999998 -1.8 0  1 -1.8 0  1.2 -1.8 0  1.4 -1.8 0  1.6 -1.8 0  1.8 -1.8 0  2 -1.8 0  -2 -1.6 0  -1.8 -1.6 0  -1.6 -1.6 0  -1.4 -1.6 0  -1.2 -1.6 0  -1 -1.6 0  -0.8 -1.6 0  -0.6000000000000001 -1.6 0  -0.3999999999999999 -1.6 0  -0.2 -1.6 0  0 -1.6 0  0.2000000000000002 -1.6 0  0.3999999999999999 -1.6 0  0.6000000000000001 -1.6 0  0.7999999999999998 -1.6 0  1 -1.6 0  1.2 -1.6 0  1.4 -1.6 0  1.6 -1.6 0  1.8 -1.6 0  2 -1.6 0  -2 -1.4 0  -1.8 -1.4 0  -1.6 -1.4 0  -1.4 -1.4 0  -1.2 -1.4 0  -1 -1.4 0  -0.8 -1.4 0  -0.6000000000000001 -1.4 0  -0.3999999999999999 -1.4 0  -0.2 -1.4 0  0 -1.4 0  0.2000000000000002 -1.4 0  0.3999999999999999 -1.4 0  0.6000000000000001 -1.4 0  0.7999999999999998 -1.4 0  1 -1.4 0  1.2 -1.4 0  1.4 -1.4 0  1.6 -1.4 0  1.8 -1.4 0  2 -1.4 0  -2 -1.2 0  -1.8 -1.2 0  -1.6 -1.2 0  -1.4 -1.2 0  -1.2 -1.2 0  -1 -1.2 0  -0.8 -1.2 0  -0.6000000000000001 -1.2 0  -0.3999999999999999 -1.2 0  -0.2 -1.2 0  0 -1.2 0  0.2000000000000002 -1.2 0  0.3999999999999999 -1.2 0  0.6000000000000001 -1.2 0  0.7999999999999998 -1.2 0  1 -1.2 0  1.2 -1.2 0  1.4 -1.2 0  1.6 -1.2 0  1.8 -1.2 0  2 -1.2 0  -2 -1 0  -1.8 -1 0  -1.6 -1 0  -1.4 -1 0  -1.2 -1 0  -1 -1 0  -0.8 -1 0  -0.6000000000000001 -1 0  -0.3999999999999999 -1 0  -0.2 -1 0  0 -1 0  0.2000000000000002 -1 0  0.3999999999999999 -1 0  0.6000000000000001 -1 0  0.7999999999999998 -1 0  1 -1 0  1.2 -1 0  1.4 -1 0  1.6 -1 0  1.8 -1 0  2 -1 0  -2 -0.8 0  -1.8 -0.8 0  -1.6 -0.8 0  -1.4 -0.8 0  -1.2 -0.8 0  -1 -0.8 0  -0.8 -0.8 0  -0.6000000000000001 -0.8 0  -0.3999999999999999 -0.8 0  -0.2 -0.8 0  0 -0.8 0  0.2000000000000002 -0.8 0  0.3999999999999999 -0.8 0  0.6000000000000001 -0.8 0  0.7999999999999998 -0.8 0  1 -0.8 0  1.2 -0.8 0  1.4 -0.8 0  1.6 -0.8 0  1.8 -0.8 0  2 -0.8 0  -2 -0.6000000000000001 0  -1.8 -0.6000000000000001 0  -1.6 -0.6000000000000001 0  -1.4 -0.6000000000000001 0  -1.2 -0.6000000000000001 0  -1 -0.6000000000000001 0  -0.8 -0.6000000000000001 0  -0.6000000000000001 -0.6000000000000001 0  -0.3999999999999999 -0.6000000000000001 0  -0.2 -0.6000000000000001 0  0 -0.6000000000000001 0  0.2000000000000002 -0.6000000000000001 0  0.3999999999999999 -0.6000000000000001 0  0.6000000000000001 -0.6000000000000001 0  0.7999999999999998 -0.6000000000000001 0  1 -0.6000000000000001 0  1.2 -0.6000000000000001 0  1.4 -0.6000000000000001 0  1.6 -0.6000000000000001 0  1.8 -0.6000000000000001 0  2 -0.6000000000000001 0  -2 -0.3999999999999999 0  -1.8 -0.3999999999999999 0  -1.6 -0.3999999999999999 0  -1.4 -0.3999999999999999 0  -1.2 -0.3999999999999999 0  -1 -0.3999999999999999 0  -0.8 -0.3999999999999999 0  -0.6000000000000001 -0.3999999999999999 0  -0.3999999999999999 -0.3999999999999999 0  -0.2 -0.3999999999999999 0  0 -0.3999999999999999 0  0.2000000000000002 -0.3999999999999999 0  0.3999999999999999 -0.3999999999999999 0  0.6000000000000001 -0.3999999999999999 0  0.7999999999999998 -0.3999999999999999 0  1 -0.3999999999999999 0  1.2 -0.3999999999999999 0  1.4 -0.3999999999999999 0  1.6 -0.3999999999999999 0  1.8 -0.3999999999999999 0  2 -0.3999999999999999 0  -2 -0.2 0  -1.8 -0.2 0  -1.6 -0.2 0  -1.4 -0.2 0  -1.2 -0.2 0  -1 -0.2 0  -0.8 -0.2 0  -0.6000000000000001 -0.2 0  -0.3999999999999999 -0.2 0  -0.2 -0.2 0  0 -0.2 0  0.2000000000000002 -0.2 0  0.3999999999999999 -0.2 0  0.6000000000000001 -0.2 0  0.7999999999999998 -0.2 0  1 -0.2 0  1.2 -0.2 0  1.4 -0.2 0  1.6 -0.2 0  1.8 -0.2 0  2 -0.2 0  -2 0 0  -1.8 0 0  -1.6 0 0  -1.4 0 0  -1.2 0 0  -1 0 0  -0.8 0 0  -0.6000000000000001 0 0  -0.3999999999999999 0 0  -0.2 0 0  0 0 0  0.2000000000000002 0 0  0.3999999999999999 0 0  0.6000000000000001 0 0  0.7999999999999998 0 0  1 0 0  1.2 0 0  1.4 0 0  1.6 0 0  1.8 0 0  2 0 0  -2 0.2000000000000002 0  -1.8 0.2000000000000002 0  -1.6 0.2000000000000002 0  -1.4 0.2000000000000002 0  -1.2 0.2000000000000002 0  -1 0.2000000000000002 0  -0.8 0.2000000000000002 0  -0.6000000000000001 0.2000000000000002 0  -0.3999999999999999 0.2000000000000002 0  -0.2 0.2000000000000002 0  0 0.2000000000000002 0  0.2000000000000002 0.2000000000000002 0  0.3999999999999999 0.2000000000000002 0  0.6000000000000001 0.2000000000000002 0  0.7999999999999998 0.2000000000000002 0  1 0.2000000000000002 0  1.2 0.2000000000000002 0  1.4 0.2000000000000002 0  1.6 0.2000000000000002 0  1.8 0.2000000000000002 0  2 0.2000000000000002 0  -2 0.3999999999999999 0  -1.8 0.3999999999999999 0  -1.6 0.3999999999999999 0  -1.4 0.3999999999999999 0  -1.2 0.3999999999999999 0  -1 0.3999999999999999 0  -0.8 0.3999999999999999 0  -0.6000000000000001 0.3999999999999999 0  -0.3999999999999999 0.3999999999999999 0  -0.2 0.3999999999999999 0  0 0.3999999999999999 0  0.2000000000000002 0.3999999999999999 0  0.3999999999999999 0.3999999999999999 0  0.6000000000000001 0.3999999999999999 0  0.7999999999999998 0.3999999999999999 0  1 0.3999999999999999 0  1.2 0.3999999999999999 0  1.4 0.3999999999999999 0  1.6 0.3999999999999999 0  1.8 0.3999999999999999 0  2 0.3999999999999999 0  -2 0.6000000000000001 0  -1.8 0.6000000000000001 0  -1.6 0.6000000000000001 0  -1.4 0.6000000000000001 0  -1.2 0.6000000000000001 0  -1 0.6000000000000001 0  -0.8 0.6000000000000001 0  -0.6000000000000001 0.6000000000000001 0  -0.3999999999999999 0.6000000000000001 0  -0.2 0.6000000000000001 0  0 0.6000000000000001 0  0.2000000000000002 0.6000000000000001 0  0.3999999999999999 0.6000000000000001 0  0.6000000000000001 0.6000000000000001 0  0.7999999999999998 0.6000000000000001 0  1 0.6000000000000001 0  1.2 0.6000000000000001 0  1.4 0.6000000000000001 0  1.6 0.6000000000000001 0  1.8 0.6000000000000001 0  2 0.6000000000000001 0  -2 0.7999999999999998 0  -1.8 0.7999999999999998 0  -1.6 0.7999999999999998 0  -1.4 0.7999999999999998 0  -1.2 0.7999999999999998 0  -1 0.7999999999999998 0  -0.8 0.7999999999999998 0  -0.6000000000000001 0.7999999999999998 0  -0.3999999999999999 0.7999999999999998 0  -0.2 0.7999999999999998 0  0 0.7999999999999998 0  0.2000000000000002 0.7999999999999998 0  0.3999999999999999 0.7999999999999998 0  0.6000000000000001 0.7999999999999998 0  0.7999999999999998 0.7999999999999998 0  1 0.7999999999999998 0  1.2 0.7999999999999998 0  1.4 0.7999999999999998 0  1.6 0.7999999999999998 0  1.8 0.7999999999999998 0  2 0.7999999999999998 0  -2 1 0  -1.8 1 0  -1.6 1 0  -1.4 1 0  -1.2 1 0  -1 1 0  -0.8 1 0  -0.6000000000000001 1 0  -0.3999999999999999 1 0  -0.2 1 0  0 1 0  0.2000000000000002 1 0  0.3999999999999999 1 0  0.6000000000000001 1 0  0.7999999999999998 1 0  1 1 0  1.2 1 0  1.4 1 0  1.6 1 0  1.8 1 0  2 1 0  -2 1.2 0  -1.8 1.2 0  -1.6 1.2 0  -1.4 1.2 0  -1.2 1.2 0  -1 1.2 0  -0.8 1.2 0  -0.6000000000000001 1.2 0  -0.3999999999999999 1.2 0  -0.2 1.2 0  0 1.2 0  0.2000000000000002 1.2 0  0.3999999999999999 1.2 0  0.6000000000000001 1.2 0  0.7999999999999998 1.2 0  1 1.2 0  1.2 1.2 0  1.4 1.2 0  1.6 1.2 0  1.8 1.2 0  2 1.2 0  -2 1.4 0  -1.8 1.4 0  -1.6 1.4 0  -1.4 1.4 0  -1.2 1.4 0  -1 1.4 0  -0.8 1.4 0  -0.6000000000000001 1.4 0  -0.3999999999999999 1.4 0  -0.2 1.4 0  0 1.4 0  0.2000000000000002 1.4 0  0.3999999999999999 1.4 0  0.6000000000000001 1.4 0  0.7999999999999998 1.4 0  1 1.4 0  1.2 1.4 0  1.4 1.4 0  1.6 1.4 0  1.8 1.4 0  2 1.4 0  -2 1.6 0  -1.8 1.6 0  -1.6 1.6 0  -1.4 1.6 0  -1.2 1.6 0  -1 1.6 0  -0.8 1.6 0  -0.6000000000000001 1.6 0  -0.3999999999999999 1.6 0  -0.2 1.6 0  0 1.6 0  0.2000000000000002 1.6 0  0.3999999999999999 1.6 0  0.6000000000000001 1.6 0  0.7999999999999998 1.6 0  1 1.6 0  1.2 1.6 0  1.4 1.6 0  1.6 1.6 0  1.8 1.6 0  2 1.6 0  -2 1.8 0  -1.8 1.8 0  -1.6 1.8 0  -1.4 1.8 0  -1.2 1.8 0  -1 1.8 0  -0.8 1.8 0  -0.6000000000000001 1.8 0  -0.3999999999999999 1.8 0  -0.2 1.8 0  0 1.8 0  0.2000000000000002 1.8 0  0.3999999999999999 1.8 0  0.6000000000000001 1.8 0  0.7999999999999998 1.8 0  1 1.8 0  1.2 1.8 0  1.4 1.8 0  1.6 1.8 0  1.8 1.8 0  2 1.8 0  -2 2 0  -1.8 2 0  -1.6 2 0  -1.4 2 0  -1.2 2 0  -1 2 0  -0.8 2 0  -0.6000000000000001 2 0  -0.3999999999999999 2 0  -0.2 2 0  0 2 0  0.2000000000000002 2 0  0.3999999999999999 2 0  0.6000000000000001 2 0  0.7999999999999998 2 0  1 2 0  1.2 2 0  1.4 2 0  1.6 2 0  1.8 2 0  2 2 0  </DataArray>
</Points>
<Cells>
[...]
<PointData  Scalars="f_8"> 
<DataArray  type="Float64"  Name="f_8"  format="ascii">7.5528441333516633e-02  7.4469137750023146e-02  7.1874762064003145e-02  6.7895432172928857e-02  6.2769507465967697e-02  5.6794930934476746e-02  5.0297828041605853e-02  4.3601908974735794e-02  3.7002023320760427e-02  3.0744384861532203e-02  2.5014796420699134e-02  1.9934951250422980e-02  1.5565816807691556e-02  1.1916383420673988e-02  8.9557472379684661e-03  6.6265631530731369e-03  4.8582512884992523e-03  3.5788411914383102e-03  2.7248661715275394e-03  2.2491825523649656e-03  2.1269398329215377e-03  7.5114086134202881e-02  7.4274466559099833e-02  7.1829649772762447e-02  6.7950518713000105e-02  6.2886991238807047e-02  5.6944403706410074e-02  5.0454798402154395e-02  4.3747540193008624e-02  3.7123185027426168e-02  3.0833521633137961e-02  2.5069408300751880e-02  1.9956682629181814e-02  1.5559269104621512e-02  1.1887811861232294e-02  8.9117854191066003e-03  6.5730571646992111e-03  4.7991929782847248e-03  3.5152759134703241e-03  2.6535088277698910e-03  2.1602804121552827e-03  2.0006118484807052e-03  7.5067159952315277e-02  7.4243626056077108e-02  7.1828377054456660e-02  6.7979401484899768e-02  6.2939543501418976e-02  5.7010849589612354e-02  5.0524681434078865e-02  4.3811521243241718e-02  3.7174169153024093e-02  3.0867186028413596e-02  2.5084212088525789e-02  1.9953472856882318e-02  1.5540624665924230e-02  1.1857273237863099e-02  8.8731013191542737e-03  6.5295468276071154e-03  4.7532881330005113e-03  3.4682848288205073e-03  2.6056543541853566e-03  2.1111269018683240e-03  1.9501471809863784e-03  7.5081569485804509e-02  7.4260120462299725e-02  7.1849903067719045e-02  6.8006619748575692e-02  6.2970968738367342e-02  5.7043540561282080e-02  5.0555101890351263e-02  4.3836340436419798e-02  3.7190864058011829e-02  3.0874380125791068e-02  2.5081746358351680e-02  1.9942251860404967e-02  1.5522310335683054e-02  1.1833909560418149e-02  8.8467466038235805e-03  6.5019721211818111e-03  4.7257774925124792e-03  3.4415518344792025e-03  2.5798728111337296e-03  2.0860605501065513e-03  1.9253440840173389e-03  7.5100086652875361e-02  7.4278802526953833e-02  7.1868767441920722e-02  6.8025306210529754e-02  6.2988700512967136e-02  5.7059251599476626e-02  5.0567660159972730e-02  4.3844788660730286e-02  3.7194612788209805e-02  3.0873312764685201e-02  2.5076223661492369e-02  1.9933027994630311e-02  1.5510389277833407e-02  1.1820377558484266e-02  8.8326142808576123e-03  6.4880512220490006e-03  4.7126057989125957e-03  3.4293687168694123e-03  2.5686394587434275e-03  2.0755138612212069e-03  1.9150710605296639e-03  7.5110865441560509e-02  7.4289471368712320e-02  7.1878987249349532e-02  6.8034696795791313e-02  6.2996850546660557e-02  5.7065759648288278e-02  5.0572194850626841e-02  4.3847149199085327e-02  3.7194771673698702e-02  3.0871428706749422e-02  2.5072621522238499e-02  1.9928151083101916e-02  1.5504735238144099e-02  1.1814431313056737e-02  8.8267901233479579e-03  6.4826522626929197e-03  4.7078040671679261e-03  3.4252047800433613e-03  2.5650374256624324e-03  2.0723064863793516e-03  1.9120301531659501e-03  7.5115186999500982e-02  7.4293706608076410e-02  7.1882943977511965e-02  6.8038190836139462e-02  6.2999718140770503e-02  5.7067873048597562e-02  5.0573478189094918e-02  4.3847590408114853e-02  3.7194426587181778e-02  3.0870415263549878e-02  2.5071104510343965e-02  1.9926320215377817e-02  1.5502780816466451e-02  1.1812521967029482e-02  8.8250561819021509e-03  6.4811766464940492e-03  4.7066207447082663e-03  3.4243033347008921e-03  2.5643714703061735e-03  2.0718036231436652e-03  1.9116017698182712e-03  7.5116409168559592e-02  7.4294889446379644e-02  7.1884022316230645e-02  6.8039106661569454e-02  6.3000425882910299e-02  5.7068344288824326e-02  5.0573704969069114e-02  4.3847586290797200e-02  3.7194224919036734e-02  3.0870064653250411e-02  2.5070662191158850e-02  1.9925844474093738e-02  1.5502323879523508e-02  1.1812124574094789e-02  8.8247446119678989e-03  6.4809623458903865e-03  4.7065021242467678e-03  3.4242689070127490e-03  2.5644033683376020e-03  2.0718806735599061e-03  1.9117016203205560e-03  7.5116627457466528e-02  7.4295094438419793e-02  7.1884199858542150e-02  6.8039245310226079e-02  6.3000518235525160e-02  5.7068387890611395e-02  5.0573702609520904e-02  4.3847545577081752e-02  3.7194157135598128e-02  3.0869983069038466e-02  2.5070580110898320e-02  1.9925773401313678e-02  1.5502272138537729e-02  1.1812096628011234e-02  8.8247411459303777e-03  6.4809810081246991e-03  4.7065386804553046e-03  3.4243184983332249e-03  2.5644615775618695e-03  2.0719441844655718e-03  1.9117683730891159e-03  7.5116639796338341e-02  7.4295103479358540e-02  7.1884204089432135e-02  6.8039243898276841e-02  6.3000511194792316e-02  5.7068376122568550e-02  5.0573687795516332e-02  4.3847529927689900e-02  3.7194143032979472e-02  3.0869972666597526e-02  2.5070574970457116e-02  1.9925774244742931e-02  1.5502278767117846e-02  1.1812108024457521e-02  8.8247557318885811e-03  6.4809969960841936e-03  4.7065544422954363e-03  3.4243328758704517e-03  2.5644740798652856e-03  2.0719550445330447e-03  1.9117784642220719e-03  7.5116635370301568e-02  7.4295098535962584e-02  7.1884198789619949e-02  6.8039238498801918e-02  6.3000506033688924e-02  5.7068371585090580e-02  5.0573684262791359e-02  4.3847527715233835e-02  3.7194142330441972e-02  3.0869973492125922e-02  2.5070577151679273e-02  1.9925777433342545e-02  1.5502282486371680e-02  1.1812111741085336e-02  8.8247589376612822e-03  6.4809992827672639e-03  4.7065555562069731e-03  3.4243327445162121e-03  2.5644728104958657e-03  2.0719529004866919e-03  1.9117758277245795e-03  7.5116629818975045e-02  7.4295093240802482e-02  7.1884194077677641e-02  6.8039234620476202e-02  6.3000503154918092e-02  5.7068369784144313e-02  5.0573683530781254e-02  4.3847527960761710e-02  3.7194143389636836e-02  3.0869975145226141e-02  2.5070579146198323e-02  1.9925779512051513e-02  1.5502284416503306e-02  1.1812113340043491e-02  8.8247600906110942e-03  6.4809999488614030e-03  4.7065557625013991e-03  3.4243325691825643e-03  2.5644723590515662e-03  2.0719522799435763e-03  1.9117751236345615e-03  7.5116610005830489e-02  7.4295074960364069e-02  7.1884177254930834e-02  6.8039219089912797e-02  6.3000488782657821e-02  5.7068356545295434e-02  5.0573671531436847e-02  4.3847517408497065e-02  3.7194134528847740e-02  3.0869968180909018e-02  2.5070574180011702e-02  1.9925776508095881e-02  1.5502283203631437e-02  1.1812113646148139e-02  8.8247615955036173e-03  6.4810023381264180e-03  4.7065587655944286e-03  3.4243359702033700e-03  2.5644759764795592e-03  2.0719559203457192e-03  1.9117785222387777e-03  7.5116636094644765e-02  7.4295102366685031e-02  7.1884197597167174e-02  6.8039225295038974e-02  6.3000476029725430e-02  5.7068322816624273e-02  5.0573617705792231e-02  4.3847446906008919e-02  3.7194052597937552e-02  3.0869880981510518e-02  2.5070487845689240e-02  1.9925696354122578e-02  1.5502213194781999e-02  1.1812056164271568e-02  8.8247174746456103e-03  6.4809710828419550e-03  4.7065388468025757e-03  3.4243251034727614e-03  2.5644713227595071e-03  2.0719541966171314e-03  1.9117760556119630e-03  7.5117245356973075e-02  7.4295693472605423e-02  7.1884717879476867e-02  6.8039630174490315e-02  6.3000733169202613e-02  5.7068414989646987e-02  5.0573543933432552e-02  4.3847221604225002e-02  3.7193702815680886e-02  3.0869442185596140e-02  2.5069998989937108e-02  1.9925195066376491e-02  1.5501731806035689e-02  1.1811619038574738e-02  8.8243397685755249e-03  6.4806587670976131e-03  4.7062896327363353e-03  3.4241298645708062e-03  2.5643156719871302e-03  2.0718200293089596e-03  1.9116430333839187e-03  7.5120418301535360e-02  7.4298767716871356e-02  7.1887508082546944e-02  6.8041971804078755e-02  6.3002494421509861e-02  5.7069508487497964e-02  5.0573935578131196e-02  4.3846933889380602e-02  3.7192811020607196e-02  3.0868063596286219e-02  2.5068276964199884e-02  1.9923280826877075e-02  1.5499767065102296e-02  1.1809721997544523e-02  8.8225959827156249e-03  6.4791172025926999e-03  4.7049632968323915e-03  3.4229998599992766e-03  2.5633374422124244e-03  2.0709308094163620e-03  1.9107699098077661e-03  7.5130326400254688e-02  7.4308433594077780e-02  7.1896541185059670e-02  6.8049976107442872e-02  6.3009088758985032e-02  5.7074367746331976e-02  5.0576838627889746e-02  4.3847802209099805e-02  3.7191725952253715e-02  3.0865257207761239e-02  2.5064098850451712e-02  1.9918148678947235e-02  1.5494111402049321e-02  1.1803935060174338e-02  8.8169922163180460e-03  6.4739091903646831e-03  4.7002535983379666e-03  3.4187867597805727e-03  2.5595314145934809e-03  2.0673783605714706e-03  1.9072818576811260e-03  7.5150550674355582e-02  7.4328536695905126e-02  7.1916324530946124e-02  6.8068907806288617e-02  6.3026322694811995e-02  5.7088897733042494e-02  5.0587711305253295e-02  4.3854317303746809e-02  3.7193573182593191e-02  3.0862565590211638e-02  2.5057399293119204e-02  1.9908269598011986e-02  1.5482037194331746e-02  1.1790658607787882e-02  8.8033871628102438e-03  6.4606385883088343e-03  4.6877218503617278e-03  3.4071339461462773e-03  2.5486641879312634e-03  2.0570291800313060e-03  1.8970867870945045e-03  7.5171572146429569e-02  7.4351496673924586e-02  7.1943607214247113e-02  6.8100640423505054e-02  6.3060693830358838e-02  5.7122906312314307e-02  5.0618008450628686e-02  4.3877939145009495e-02  3.7208452475487049e-02  3.0867779773041119e-02  2.5053168481201302e-02  1.9895758149188782e-02  1.5463034241298426e-02  1.1767216394544705e-02  8.7774846898292860e-03  6.4339180663009763e-03  4.6613236536252843e-03  3.3816378636289377e-03  2.5241336908766541e-03  2.0331496581619379e-03  1.8733801345223438e-03  7.5134501571419529e-02  7.4331399993630240e-02  7.1952333357214349e-02  6.8137939924360000e-02  6.3119722784115290e-02  5.7193837272996810e-02  5.0690536244059108e-02  4.3943007113383746e-02  3.7259322183238311e-02  3.0900510425586128e-02  2.5066586532990997e-02  1.9891033410046055e-02  1.5443006126980125e-02  1.1735618737204917e-02  8.7381985260712412e-03  6.3903469649133080e-03  4.6159486071964935e-03  3.3357841247642771e-03  2.4779874463108117e-03  1.9861196262952532e-03  1.8250411351278164e-03  7.4725814118506026e-02  7.4139134102990473e-02  7.1908606893983776e-02  6.8194829061153803e-02  6.3240163318507236e-02  5.7347556406092362e-02  5.0852709763622599e-02  4.4094172113978772e-02  3.7385621599686544e-02  3.0993738216992729e-02  2.5123797627749453e-02  1.9913697129701220e-02  1.5435817997543212e-02  1.1705145843543246e-02  8.6915266176798549e-03  6.3338380224500926e-03  4.5541215364597563e-03  3.2702094225415283e-03  2.4059371107811047e-03  1.8985129017538096e-03  1.7029179963766775e-03  </DataArray> 
</PointData> 
</Piece>
</UnstructuredGrid>
</VTKFile>