<?xml version="1.0"?>
<VTKFile type="UnstructuredGrid"  version="0.1"  >
<UnstructuredGrid>
<Piece  NumberOfPoints="441" NumberOfCells="800">
<Points>
<DataArray  type="Float64"  NumberOfComponents="3"  format="ascii">-2 -2 0  -1.8 -2 0  -1.6 -2 0  -1.4 -2 0  -1.2 -2 0  -1 -2 0  -0.8 -2 0  -0.6000000000000001 -2 0  -0.3999999999999999 -2 0  -0.2 -2 0  0 -2 0  0.2000000000000002 -2 0  0.3999999999999999 -2 0  0.6000000000000001 -2 0  0.7999999999999998 -2 0  1 -2 0  1.2 -2 0  1.4 -2 0  1.6 -2 0  1.8 -2 0  2 -2 0  -2 -1.8 0  -1.8 -1.8 0  -1.6 -1.8 0  -1.4 -1.8 0  -1.2 -1.8 0  -1 -1.8 0  -0.8 -1.8 0  -0.6000000000000001 -1.8 0  -0.3999999999999999 -1.8 0  -0.2 -1.8 0  0 -1.8 0  0.2000000000000002 -1.8 0  0.3999999999999999 -1.8 0  0.6000000000000001 -1.8 0  0.7999999999999998 -1.8 0  1 -1.8 0  1.2 -1.8 0  1.4 -1.8 0  1.6 -1.8 0  1.8 -1.8 0  2 -1.8 0  -2 -1.6 0  -1.8 -1.6 0  -1.6 -1.6 0  -1.4 -1.6 0  -1.2 -1.6 0  -1 -1.6 0  -0.8 -1.6 0  -0.6000000000000001 -1.6 0  -0.3999999999999999 -1.6 0  -0.2 -1.6 0  0 -1.6 0  0.2000000000000002 -1.6 0  0.3999999999999999 -1.6 0  0.6000000000000001 -1.6 0  0.7999999999999998 -1.6 0  1 -1.6 0  1.2 -1.6 0  1.4 -1.6 0  1.6 -1.6 0  1.8 -1.6 0  2 -1.6 0  -2 -1.4 0  -1.8 -1.4 0  -1.6 -1.4 0  -1.4 -1.4 0  -1.2 -1.4 0  -1 -1.4 0  -0.8 -1.4 0  -0.6000000000000001 -1.4 0  -0.3999999999999999 -1.4 0  -0.2 -1.4 0  0 -1.4 0  0.2000000000000002 -1.4 0  0.3999999999999999 -1.4 0  0.6000000000000001 -1.4 0  0.7999999999999998 -1.4 0  1 -1.4 0  1.2 -1.4 0  1.4 -1.4 0  1.6 -1.4 0  1.8 -1.4 0  2 -1.4 0  -2 -1.2 0  -1.8 -1.2 0  -1.6 -1.2 0  -1.4 -1.2 0  -1.2 -1.2 0  -1 -1.2 0  -0.8 -1.2 0  -0.6000000000000001 -1.2 0  -0.3999999999999999 -1.2 0  -0.2 -1.2 0  0 -1.2 0  0.2000000000000002 -1.2 0  0.3999999999999999 -1.2 0  0.6000000000000001 -1.2 0  0.7999999999999998 -1.2 0  1 -1.2 0  1.2 -1.2 0  1.4 -1.2 0  1.6 -1.2 0  1.8 -1.2 0  2 -1.2 0  -2 -1 0  -1.8 -1 0  -1.6 -1 0  -1.4 -1 0  -1.2 -1 0  -1 -1 0  -0.8 -1 0  -0.6000000000000001 -1 0  -0.3999999999999999 -1 0  -0.2 -1 0  0 -1 0  0.2000000000000002 -1 0  0.3999999999999999 -1 0  0.6000000000000001 -1 0  0.7999999999999998 -1 0  1 -1 0  1.2 -1 0  1.4 -1 0  1.6 -1 0  1.8 -1 0  2 -1 0  -2 -0.8 0  -1.8 -0.8 0  -1.6 -0.8 0  -1.4 -0.8 0  -1.2 -0.8 0  -1 -0.8 0  -0.8 -0.8 0  -0.6000000000000001 -0.8 0  -0.3999999999999999 -0.8 0  -0.2 -0.8 0  0 -0.8 0  0.2000000000000002 -0.8 0  0.3999999999999999 -0.8 0  0.6000000000000001 -0.8 0  0.7999999999999998 -0.8 0  1 -0.8 0  1.2 -0.8 0  1.4 -0.8 0  1.6 -0.8 0  1.8 -0.8 0  2 -0.8 0  -2 -0.6000000000000001 0  -1.8 -0.6000000000000001 0  -1.6 -0.6000000000000001 0  -1.4 -0.6000000000000001 0  -1.2 -0.6000000000000001 0  -1 -0.6000000000000001 0  -0.8 -0.6000000000000001 0  -0.6000000000000001 -0.6000000000000001 0  -0.3999999999999999 -0.6000000000000001 0  -0.2 -0.6000000000000001 0  0 -0.6000000000000001 0  0.2000000000000002 -0.6000000000000001 0  0.3999999999999999 -0.6000000000000001 0  0.6000000000000001 -0.6000000000000001 0  0.7999999999999998 -0.6000000000000001 0  1 -0.6000000000000001 0  1.2 -0.6000000000000001 0  1.4 -0.6000000000000001 0  1.6 -0.6000000000000001 0  1.8 -0.6000000000000001 0  2 -0.6000000000000001 0  -2 -0.3999999999999999 0  -1.8 -0.3999999999999999 0  -1.6 -0.3999999999999999 0  -1.4 -0.3999999999999999 0  -1.2 -0.3999999999999999 0  -1 -0.3999999999999999 0  -0.8 -0.3999999999999999 0  -0.6000000000000001 -0.3999999999999999 0  -0.3999999999999999 -0.3999999999999999 0  -0.2 -0.3999999999999999 0  0 -0.3999999999999999 0  0.2000000000000002 -0.3999999999999999 0  0.3999999999999999 -0.3999999999999999 0  0.6000000000000001 -0.3999999999999999 0  0.7999999999999998 -0.3999999999999999 0  1 -0.3999999999999999 0  1.2 -0.3999999999999999 0  1.4 -0.3999999999999999 0  1.6 -0.3999999999999999 0  1.8 -0.3999999999999999 0  2 -0.3999999999999999 0  -2 -0.2 0  -1.8 -0.2 0  -1.6 -0.2 0  -1.4 -0.2 0  -1.2 -0.2 0  -1 -0.2 0  -0.8 -0.2 0  -0.6000000000000001 -0.2 0  -0.3999999999999999 -0.2 0  -0.2 -0.2 0  0 -0.2 0  0.2000000000000002 -0.2 0  0.3999999999999999 -0.2 0  0.6000000000000001 -0.2 0  0.7999999999999998 -0.2 0  1 -0.2 0  1.2 -0.2 0  1.4 -0.2 0  1.6 -0.2 0  1.8 -0.2 0  2 -0.2 0  -2 0 0  -1.8 0 0  -1.6 0 0  -1.4 0 0  -1.2 0 0  -1 0 0  -0.8 0 0  -0.6000000000000001 0 0  -0.3999999999999999 0 0  -0.2 0 0  0 0 0  0.2000000000000002 0 0  0.3999999999999999 0 0  0.6000000000000001 0 0  0.7999999999999998 0 0  1 0 0  1.2 0 0  1.4 0 0  1.6 0 0  1.8 0 0  2 0 0  -2 0.2000000000000002 0  -1.8 0.2000000000000002 0  -1.6 0.2000000000000002 0  -1.4 0.2000000000000002 0  -1.2 0.2000000000000002 0  -1 0.2000000000000002 0  -0.8 0.2000000000000002 0  -0.6000000000000001 0.2000000000000002 0  -0.3999999999999999 0.2000000000000002 0  -0.2 0.2000000000000002 0  0 0.2000000000000002 0  0.2000000000000002 0.2000000000000002 0  0.3999999999999999 0.2000000000000002 0  0.6000000000000001 0.2000000000000002 0  0.7999999999999998 0.2000000000000002 0  1 0.2000000000000002 0  1.2 0.2000000000000002 0  1.4 0.2000000000000002 0  1.6 0.2000000000000002 0  1.8 0.2000000000000002 0  2 0.2000000000000002 0  -2 0.3999999999999999 0  -1.8 0.3999999999999999 0  -1.6 0.3999999999999999 0  -1.4 0.3999999999999999 0  -1.2 0.3999999999999999 0  -1 0.3999999999999999 0  -0.8 0.3999999999999999 0  -0.6000000000000001 0.3999999999999999 0  -0.3999999999999999 0.3999999999999999 0  -0.2 0.3999999999999999 0  0 0.3999999999999999 0  0.2000000000000002 0.3999999999999999 0  0.3999999999999999 0.3999999999999999 0  0.6000000000000001 0.3999999999999999 0  0.7999999999999998 0.3999999999999999 0  1 0.3999999999999999 0  1.2 0.3999999999999999 0  1.4 0.3999999999999999 0  1.6 0.3999999999999999 0  1.8 0.3999999999999999 0  2 0.3999999999999999 0  -2 0.6000000000000001 0  -1.8 0.6000000000000001 0  -1.6 0.6000000000000001 0  -1.4 0.6000000000000001 0  -1.2 0.6000000000000001 0  -1 0.6000000000000001 0  -0.8 0.6000000000000001 0  -0.6000000000000001 0.6000000000000001 0  -0.3999999999999999 0.6000000000000001 0  -0.2 0.6000000000000001 0  0 0.6000000000000001 0  0.2000000000000002 0.6000000000000001 0  0.3999999999999999 0.6000000000000001 0  0.6000000000000001 0.6000000000000001 0  0.7999999999999998 0.6000000000000001 0  1 0.6000000000000001 0  1.2 0.6000000000000001 0  1.4 0.6000000000000001 0  1.6 0.6000000000000001 0  1.8 0.6000000000000001 0  2 0.6000000000000001 0  -2 0.7999999999999998 0  -1.8 0.7999999999999998 0  -1.6 0.7999999999999998 0  -1.4 0.7999999999999998 0  -1.2 0.7999999999999998 0  -1 0.7999999999999998 0  -0.8 0.7999999999999998 0  -0.6000000000000001 0.7999999999999998 0  -0.3999999999999999 0.7999999999999998 0  -0.2 0.7999999999999998 0  0 0.7999999999999998 0  0.2000000000000002 0.7999999999999998 0  0.3999999999999999 0.7999999999999998 0  0.6000000000000001 0.7999999999999998 0  0.7999999999999998 0.7999999999999998 0  1 0.7999999999999998 0  1.2 0.7999999999999998 0  1.4 0.7999999999999998 0  1.6 0.7999999999999998 0  1.8 0.7999999999999998 0  2 0.7999999999999998 0  -2 1 0  -1.8 1 0  -1.6 1 0  -1.4 1 0  -1.2 1 0  -1 1 0  -0.8 1 0  -0.6000000000000001 1 0  -0.3999999999999999 1 0  -0.2 1 0  0 1 0  0.2000000000000002 1 0  0.3999999999999999 1 0  0.6000000000000001 1 0  0.7999999999999998 1 0  1 1 0  1.2 1 0  1.4 1 0  1.6 1 0  1.8 1 0  2 1 0  -2 1.2 0  -1.8 1.2 0  -1.6 1.2 0  -1.4 1.2 0  -1.2 1.2 0  -1 1.2 0  -0.8 1.2 0  -0.6000000000000001 1.2 0  -0.3999999999999999 1.2 0  -0.2 1.2 0  0 1.2 0  0.2000000000000002 1.2 0  0.3999999999999999 1.2 0  0.6000000000000001 1.2 0  0.7999999999999998 1.2 0  1 1.2 0  1.2 1.2 0  1.4 1.2 0  1.6 1.2 0  1.8 1.2 0  2 1.2 0  -2 1.4 0  -1.8 1.4 0  -1.6 1.4 0  -1.4 1.4 0  -1.2 1.4 0  -1 1.4 0  -0.8 1.4 0  -0.6000000000000001 1.4 0  -0.3999999999999999 1.4 0  -0.2 1.4 0  0 1.4 0  0.2000000000000002 1.4 0  0.3999999999999999 1.4 0  0.6000000000000001 1.4 0  0.7999999999999998 1.4 0  1 1.4 0  1.2 1.4 0  1.4 1.4 0  1.6 1.4 0  1.8 1.4 0  2 1.4 0  -2 1.6 0  -1.8 1.6 0  -1.6 1.6 0  -1.4 1.6 0  -1.2 1.6 0  -1 1.6 0  -0.8 1.6 0  -0.6000000000000001 1.6 0  -0.3999999999999999 1.6 0  -0.2 1.6 0  0 1.6 0  0.2000000000000002 1.6 0  0.3999999999999999 1.6 0  0.6000000000000001 1.6 0  0.7999999999999998 1.6 0  1 1.6 0  1.2 1.6 0  1.4 1.6 0  1.6 1.6 0  1.8 1.6 0  2 1.6 0  -2 1.8 0  -1.8 1.8 0  -1.6 1.8 0  -1.4 1.8 0  -1.2 1.8 0  -1 1.8 0  -0.8 1.8 0  -0.6000000000000001 1.8 0  -0.3999999999999999 1.8 0  -0.2 1.8 0  0 1.8 0  0.2000000000000002 1.8 0  0.3999999999999999 1.8 0  0.6000000000000001 1.8 0  0.7999999999999998 1.8 0  1 1.8 0  1.2 1.8 0  1.4 1.8 0  1.6 1.8 0  1.8 1.8 0  2 1.8 0  -2 2 0  -1.8 2 0  -1.6 2 0  -1.4 2 0  -1.2 2 0  -1 2 0  -0.8 2 0  -0.6000000000000001 2 0  -0.3999999999999999 2 0  -0.2 2 0  0 2 0  0.2000000000000002 2 0  0.3999999999999999 2 0  0.6000000000000001 2 0  0.7999999999999998 2 0  1 2 0  1.2 2 0  1.4 2 0  1.6 2 0  1.8 2 0  2 2 0  </DataArray>
</Points>
<Cells>
[...]
<PointData  Scalars="f_8"> 
<DataArray  type="Float64"  Name="f_8"  format="ascii">2.4943753108497231e-02  2.4969324860808766e-02  2.4980215781935385e-02  2.4986139270815791e-02  2.4989958550347562e-02  2.4992710822206797e-02  2.4994857141606933e-02  2.4996639288874026e-02  2.4998200501913356e-02  2.4999634578041198e-02  2.5001009936646713e-02  2.5002384002596169e-02  2.5003814090600113e-02  2.5005368271916895e-02  2.5007139690143752e-02  2.5009270447027526e-02  2.5012000249990972e-02  2.5015785972764399e-02  2.5021655792932390e-02  2.5032456048240531e-02  2.5057904675036605e-02  2.5128171079930824e-02  2.5134197906615863e-02  2.5140156630795902e-02  2.5144593059642194e-02  2.5147850511867686e-02  2.5150336299566593e-02  2.5152330136895964e-02  2.5154011709572217e-02  2.5155498634764458e-02  2.5156871976928837e-02  2.5158192459437539e-02  2.5159511644446495e-02  2.5160880986329147e-02  2.5162360875358027e-02  2.5164031786201760e-02  2.5166010437147529e-02  2.5168475276258883e-02  2.5171704687947612e-02  2.5176106087949707e-02  2.5182029679986853e-02  2.5188040557192263e-02  2.5606665633760659e-02  2.5607506925836708e-02  2.5609943701696072e-02  2.5612473055113816e-02  2.5614688663402618e-02  2.5616563329728156e-02  2.5618166161361065e-02  2.5619574789009347e-02  2.5620854171828005e-02  2.5622055350084851e-02  2.5623219381198700e-02  2.5624382268039168e-02  2.5625579940510974e-02  2.5626853246227835e-02  2.5628252915092728e-02  2.5629843595632147e-02  2.5631702870529256e-02  2.5633900704224069e-02  2.5636412994567676e-02  2.5638840503493340e-02  2.5639690488589308e-02  2.6372161113051823e-02  2.6371180137358868e-02  2.6371586968334752e-02  2.6372579501501934e-02  2.6373735568816371e-02  2.6374883268243627e-02  2.6375971091528113e-02  2.6376996236112234e-02  2.6377972131368117e-02  2.6378915628412179e-02  2.6379842978404459e-02  2.6380769465084511e-02  2.6381710342519096e-02  2.6382681794316323e-02  2.6383700639071056e-02  2.6384780460605741e-02  2.6385919076120201e-02  2.6387066506864742e-02  2.6388053801851021e-02  2.6388463185687352e-02  2.6387496847079868e-02  2.7404775457742548e-02  2.7402887169300092e-02  2.7402074585722309e-02  2.7401941203323222e-02  2.7402186524879860e-02  2.7402629232658106e-02  2.7403171891929166e-02  2.7403765284912649e-02  2.7404384931476622e-02  2.7405017991832398e-02  2.7405656618554639e-02  2.7406294736332146e-02  2.7406926271830969e-02  2.7407543407225288e-02  2.7408133434027256e-02  2.7408672236279762e-02  2.7409111380053079e-02  2.7409354833721457e-02  2.7409223365197553e-02  2.7408418873026766e-02  2.7406546529745050e-02  2.8677213518267772e-02  2.8674736541313448e-02  2.8673123933049608e-02  2.8672171514385409e-02  2.8671681573258372e-02  2.8671502477921558e-02  2.8671529307066675e-02  2.8671691799589949e-02  2.8671941970290410e-02  2.8672244901307292e-02  2.8672572652648071e-02  2.8672900272578846e-02  2.8673202823269621e-02  2.8673452426421584e-02  2.8673614332307671e-02  2.8673640920871366e-02  2.8673462593986506e-02  2.8672975449305478e-02  2.8672029148580927e-02  2.8670427217629694e-02  2.8667966099702832e-02  3.0156539975353072e-02  3.0153631773769975e-02  3.0151458419186251e-02  3.0149905115951996e-02  3.0148839997651410e-02  3.0148143229488535e-02  3.0147716827066767e-02  3.0147483788282248e-02  3.0147383368918489e-02  3.0147365934084278e-02  3.0147388552013328e-02  3.0147411406717315e-02  3.0147394689123721e-02  3.0147295503408347e-02  3.0147064322133175e-02  3.0146640638883403e-02  3.0145947871813700e-02  3.0144888645616957e-02  3.0143343835152263e-02  3.0141182174277945e-02  3.0138289081276196e-02  3.1805179646504089e-02  3.1801950823759070e-02  3.1799377511769408e-02  3.1797387570222525e-02  3.1795887764964760e-02  3.1794782353630827e-02  3.1793983205099602e-02  3.1793413151271745e-02  3.1793005471493122e-02  3.1792701674807390e-02  3.1792448758277726e-02  3.1792196423963547e-02  3.1791894359315100e-02  3.1791489529393820e-02  3.1790923426267506e-02  3.1790129370550327e-02  3.1789030330065242e-02  3.1787538409553735e-02  3.1785558153608090e-02  3.1782996560115892e-02  3.1779781541339341e-02  3.3581793737198405e-02  3.3578342330135215e-02  3.3575496981643395e-02  3.3573206338191747e-02  3.3571398716920012e-02  3.3569994123140025e-02  3.3568912769798544e-02  3.3568079622810457e-02  3.3567425876077160e-02  3.3566888484125132e-02  3.3566408629532203e-02  3.3565929680972120e-02  3.3565394961016251e-02  3.3564745524278537e-02  3.3563918144353118e-02  3.3562843822083868e-02  3.3561447359824255e-02  3.3559648864473657e-02  3.3557368294358736e-02  3.3554533950990381e-02  3.3551094454752996e-02  3.5442193843769711e-02  3.5438616849996434e-02  3.5435615086606705e-02  3.5433146812663067e-02  3.5431151222831178e-02  3.5429557174268517e-02  3.5428290422462753e-02  3.5427278340758241e-02  3.5426452194801505e-02  3.5425747529528005e-02  3.5425103302097784e-02  3.5424460292523274e-02  3.5423759196900266e-02  3.5422938730722296e-02  3.5421934068883172e-02  3.5420676024485849e-02  3.5419091493079931e-02  3.5417105787931058e-02  3.5414647413725034e-02  3.5411655338951360e-02  3.5408087733555367e-02  3.7340334704182174e-02  3.7336731931044052e-02  3.7333686505800087e-02  3.7331159524296324e-02  3.7329093663962087e-02  3.7327421004991063e-02  3.7326069857315194e-02  3.7324969471461120e-02  3.7324052490762989e-02  3.7323255537887831e-02  3.7322518491810577e-02  3.7321782976186102e-02  3.7320990489612613e-02  3.7320080545827999e-02  3.7318989192409016e-02  3.7317648339850441e-02  3.7315986423276021e-02  3.7313930951651454e-02  3.7311413328898653e-02  3.7308375782974280e-02  3.7304779246551838e-02  3.9229388713900713e-02  3.9225863536373785e-02  3.9222888775630994e-02  3.9220422798765482e-02  3.9218405393576440e-02  3.9216766738988842e-02  3.9215434778161737e-02  3.9214339948965601e-02  3.9213417362476036e-02  3.9212607020431674e-02  3.9211852735293248e-02  3.9211100305466158e-02  3.9210295362992711e-02  3.9209381229947972e-02  3.9208297121708258e-02  3.9206977120266391e-02  3.9205350479364472e-02  3.9203343933995952e-02  3.9200886603823384e-02  3.9197917552375700e-02  3.9194394887596101e-02  4.1062887415609872e-02  4.1059546245730952e-02  4.1056760617317889e-02  4.1054479463478628e-02  4.1052632424007071e-02  4.1051142315879550e-02  4.1049933893291313e-02  4.1048938390198186e-02  4.1048094792015030e-02  4.1047349030403454e-02  4.1046652035533419e-02  4.1045957239380100e-02  4.1045217870207616e-02  4.1044384252495382e-02  4.1043401329505749e-02  4.1042206758439788e-02  4.1040730190221440e-02  4.1038894694108312e-02  4.1036621541146470e-02  4.1033839272332367e-02  4.1030496432245454e-02  4.2795902984473347e-02  4.2792854690706976e-02  4.2790383816446835e-02  4.2788418960948427e-02  4.2786869328803677e-02  4.2785643872410455e-02  4.2784661691616890e-02  4.2783855338333392e-02  4.2783169985082976e-02  4.2782560714801132e-02  4.2781989188040069e-02  4.2781420219156929e-02  4.2780818390830221e-02  4.2780144668505826e-02  4.2779352979060228e-02  4.2778386893633183e-02  4.2777176971915035e-02  4.2775640072972153e-02  4.2773682956936239e-02  4.2771213169495767e-02  4.2768158720664515e-02  4.4386232677416725e-02  4.4383589773367260e-02  4.4381572894902674e-02  4.4380069345654284e-02  4.4378951734607819e-02  4.4378107518133550e-02  4.4377449107677158e-02  4.4376912940548373e-02  4.4376454370775011e-02  4.4376041919439370e-02  4.4375652148505015e-02  4.4375265294799557e-02  4.4374861350918365e-02  4.4374416139568239e-02  4.4373896927896485e-02  4.4373257272603800e-02  4.4372431254392226e-02  4.4371328432532775e-02  4.4369833201558677e-02  4.4367815597470099e-02  4.4365161930649794e-02  4.5795539935674041e-02  4.5793425941005314e-02  4.5792031538895377e-02  4.5791158770360843e-02  4.5790618408879956e-02  4.5790269758796791e-02  4.5790021884811391e-02  4.5789821748055425e-02  4.5789641523977652e-02  4.5789468772453684e-02  4.5789299557462207e-02  4.5789133588656709e-02  4.5788970338674670e-02  4.5788805149813212e-02  4.5788624338321517e-02  4.5788398236928519e-02  4.5788071241404743e-02  4.5787549004616672e-02  4.5786686654520320e-02  4.5785290816694788e-02  4.5783161511499901e-02  4.6990394175885138e-02  4.6988970937855326e-02  4.6988433937764029e-02  4.6988404840665535e-02  4.6988599164731207e-02  4.6988851021272003e-02  4.6989080298975208e-02  4.6989258186413106e-02  4.6989383749894482e-02  4.6989470268163143e-02  4.6989537739531545e-02  4.6989608712073035e-02  4.6989705522582324e-02  4.6989847528008881e-02  4.6990046901980213e-02  4.6990301045950748e-02  4.6990578701326058e-02  4.6990796114195495e-02  4.6990782059031615e-02  4.6990245257876685e-02  4.6988802460677721e-02  4.7943124503108503e-02  4.7942690340625010e-02  4.7943397738032960e-02  4.7944494254571098e-02  4.7945584610307512e-02  4.7946515002228005e-02  4.7947252146528015e-02  4.7947814859974909e-02  4.7948242006147009e-02  4.7948578994348824e-02  4.7948872719141201e-02  4.7949170079621371e-02  4.7949517797294838e-02  4.7949962239112000e-02  4.7950547941138316e-02  4.7951312507792922e-02  4.7952272910915257e-02  4.7953392818710618e-02  4.7954512732151094e-02  4.7955226941609870e-02  4.7954770041180692e-02  4.8632306432452553e-02  4.8633675877743920e-02  4.8636345298173594e-02  4.8638924321315100e-02  4.8641033789681744e-02  4.8642655743532534e-02  4.8643871468158177e-02  4.8644777605233787e-02  4.8645464181279907e-02  4.8646011682317684e-02  4.8646493348252003e-02  4.8646978634449972e-02  4.8647536841794244e-02  4.8648240768375497e-02  4.8649170234451769e-02  4.8650414469420124e-02  4.8652069240832409e-02  4.8654214600475858e-02  4.8656829255930713e-02  4.8659522255497994e-02  4.8660870885093854e-02  4.9042292599967230e-02  4.9048406942367138e-02  4.9054324369460389e-02  4.9058680511210637e-02  4.9061767839952211e-02  4.9063962337957012e-02  4.9065538643900099e-02  4.9066688697795312e-02  4.9067552896101436e-02  4.9068241381801346e-02  4.9068847526605473e-02  4.9069457137882036e-02  4.9070155866351363e-02  4.9071036641985200e-02  4.9072208973046122e-02  4.9073812614585842e-02  4.9076039219433237e-02  4.9079164184551050e-02  4.9083566163720602e-02  4.9089538333697051e-02  4.9095660730368688e-02  4.9159332390053385e-02  4.9182633985653292e-02  4.9192951774671097e-02  4.9198659003769442e-02  4.9202265824807939e-02  4.9204708693756379e-02  4.9206425824020003e-02  4.9207666183770211e-02  4.9208594286202695e-02  4.9209332652122038e-02  4.9209982402154906e-02  4.9210635389159652e-02  4.9211383288341098e-02  4.9212326708263539e-02  4.9213587386568142e-02  4.9215328890415876e-02  4.9217799246829591e-02  4.9221436089995733e-02  4.9227177304131203e-02  4.9237547818019166e-02  4.9261029815529343e-02  </DataArray> 
</PointData> 
</Piece>
</UnstructuredGrid>
</VTKFile>