<?xml version="1.0"?>
<VTKFile type="UnstructuredGrid"  version="0.1"  >
<UnstructuredGrid>
<Piece  NumberOfPoints="441" NumberOfCells="800">
<Points>
<DataArray  type="Float64"  NumberOfComponents="3"  format="ascii">-2 -2 0  -1.8 -2 0  -1.6 -2 0  -1.4 -2 0  -1.2 -2 0  -1 -2 0  -0.8 -2 0  -0.6000000000000001 -2 0  -0.3999999999999999 -2 0  -0.2 -2 0  0 -2 0  0.2000000000000002 -2 0  0.3999999999999999 -2 0  0.6000000000000001 -2 0  0.7999999999999998 -2 0  1 -2 0  1.2 -2 0  1.4 -2 0  1.6 -2 0  1.8 -2 0  2 -2 0  -2 -1.8 0  -1.8 -1.8 0  -1.6 -1.8 0  -1.4 -1.8 0  -1.2 -1.8 0  -1 -1.8 0  -0.8 -1.8 0  -0.6000000000000001 -1.8 0  -0.3999999999999999 -1.8 0  -0.2 -1.8 0  0 -1.8 0  0.2000000000000002 -1.8 0  0.3999999999999999 -1.8 0  0.6000000000000001 -1.8 0  0.7999999999999998 -1.8 0  1 -1.8 0  1.2 -1.8 0  1.4 -1.8 0  1.6 -1.8 0  1.8 -1.8 0  2 -1.8 0  -2 -1.6 0  -1.8 -1.6 0  -1.6 -1.6 0  -1.4 -1.6 0  -1.2 -1.6 0  -1 -1.6 0  -0.8 -1.6 0  -0.6000000000000001 -1.6 0  -0.3999999999999999 -1.6 0  -0.2 -1.6 0  0 -1.6 0  0.2000000000000002 -1.6 0  0.3999999999999999 -1.6 0  0.6000000000000001 -1.6 0  0.7999999999999998 -1.6 0  1 -1.6 0  1.2 -1.6 0  1.4 -1.6 0  1.6 -1.6 0  1.8 -1.6 0  2 -1.6 0  -2 -1.4 0  -1.8 -1.4 0  -1.6 -1.4 0  -1.4 -1.4 0  -1.2 -1.4 0  -1 -1.4 0  -0.8 -1.4 0  -0.6000000000000001 -1.4 0  -0.3999999999999999 -1.4 0  -0.2 -1.4 0  0 -1.4 0  0.2000000000000002 -1.4 0  0.3999999999999999 -1.4 0  0.6000000000000001 -1.4 0  0.7999999999999998 -1.4 0  1 -1.4 0  1.2 -1.4 0  1.4 -1.4 0  1.6 -1.4 0  1.8 -1.4 0  2 -1.4 0  -2 -1.2 0  -1.8 -1.2 0  -1.6 -1.2 0  -1.4 -1.2 0  -1.2 -1.2 0  -1 -1.2 0  -0.8 -1.2 0  -0.6000000000000001 -1.2 0  -0.3999999999999999 -1.2 0  -0.2 -1.2 0  0 -1.2 0  0.2000000000000002 -1.2 0  0.3999999999999999 -1.2 0  0.6000000000000001 -1.2 0  0.7999999999999998 -1.2 0  1 -1.2 0  1.2 -1.2 0  1.4 -1.2 0  1.6 -1.2 0  1.8 -1.2 0  2 -1.2 0  -2 -1 0  -1.8 -1 0  -1.6 -1 0  -1.4 -1 0  -1.2 -1 0  -1 -1 0  -0.8 -1 0  -0.6000000000000001 -1 0  -0.3999999999999999 -1 0  -0.2 -1 0  0 -1 0  0.2000000000000002 -1 0  0.3999999999999999 -1 0  0.6000000000000001 -1 0  0.7999999999999998 -1 0  1 -1 0  1.2 -1 0  1.4 -1 0  1.6 -1 0  1.8 -1 0  2 -1 0  -2 -0.8 0  -1.8 -0.8 0  -1.6 -0.8 0  -1.4 -0.8 0  -1.2 -0.8 0  -1 -0.8 0  -0.8 -0.8 0  -0.6000000000000001 -0.8 0  -0.3999999999999999 -0.8 0  -0.2 -0.8 0  0 -0.8 0  0.2000000000000002 -0.8 0  0.3999999999999999 -0.8 0  0.6000000000000001 -0.8 0  0.7999999999999998 -0.8 0  1 -0.8 0  1.2 -0.8 0  1.4 -0.8 0  1.6 -0.8 0  1.8 -0.8 0  2 -0.8 0  -2 -0.6000000000000001 0  -1.8 -0.6000000000000001 0  -1.6 -0.6000000000000001 0  -1.4 -0.6000000000000001 0  -1.2 -0.6000000000000001 0  -1 -0.6000000000000001 0  -0.8 -0.6000000000000001 0  -0.6000000000000001 -0.6000000000000001 0  -0.3999999999999999 -0.6000000000000001 0  -0.2 -0.6000000000000001 0  0 -0.6000000000000001 0  0.2000000000000002 -0.6000000000000001 0  0.3999999999999999 -0.6000000000000001 0  0.6000000000000001 -0.6000000000000001 0  0.7999999999999998 -0.6000000000000001 0  1 -0.6000000000000001 0  1.2 -0.6000000000000001 0  1.4 -0.6000000000000001 0  1.6 -0.6000000000000001 0  1.8 -0.6000000000000001 0  2 -0.6000000000000001 0  -2 -0.3999999999999999 0  -1.8 -0.3999999999999999 0  -1.6 -0.3999999999999999 0  -1.4 -0.3999999999999999 0  -1.2 -0.3999999999999999 0  -1 -0.3999999999999999 0  -0.8 -0.3999999999999999 0  -0.6000000000000001 -0.3999999999999999 0  -0.3999999999999999 -0.3999999999999999 0  -0.2 -0.3999999999999999 0  0 -0.3999999999999999 0  0.2000000000000002 -0.3999999999999999 0  0.3999999999999999 -0.3999999999999999 0  0.6000000000000001 -0.3999999999999999 0  0.7999999999999998 -0.3999999999999999 0  1 -0.3999999999999999 0  1.2 -0.3999999999999999 0  1.4 -0.3999999999999999 0  1.6 -0.3999999999999999 0  1.8 -0.3999999999999999 0  2 -0.3999999999999999 0  -2 -0.2 0  -1.8 -0.2 0  -1.6 -0.2 0  -1.4 -0.2 0  -1.2 -0.2 0  -1 -0.2 0  -0.8 -0.2 0  -0.6000000000000001 -0.2 0  -0.3999999999999999 -0.2 0  -0.2 -0.2 0  0 -0.2 0  0.2000000000000002 -0.2 0  0.3999999999999999 -0.2 0  0.6000000000000001 -0.2 0  0.7999999999999998 -0.2 0  1 -0.2 0  1.2 -0.2 0  1.4 -0.2 0  1.6 -0.2 0  1.8 -0.2 0  2 -0.2 0  -2 0 0  -1.8 0 0  -1.6 0 0  -1.4 0 0  -1.2 0 0  -1 0 0  -0.8 0 0  -0.6000000000000001 0 0  -0.3999999999999999 0 0  -0.2 0 0  0 0 0  0.2000000000000002 0 0  0.3999999999999999 0 0  0.6000000000000001 0 0  0.7999999999999998 0 0  1 0 0  1.2 0 0  1.4 0 0  1.6 0 0  1.8 0 0  2 0 0  -2 0.2000000000000002 0  -1.8 0.2000000000000002 0  -1.6 0.2000000000000002 0  -1.4 0.2000000000000002 0  -1.2 0.2000000000000002 0  -1 0.2000000000000002 0  -0.8 0.2000000000000002 0  -0.6000000000000001 0.2000000000000002 0  -0.3999999999999999 0.2000000000000002 0  -0.2 0.2000000000000002 0  0 0.2000000000000002 0  0.2000000000000002 0.2000000000000002 0  0.3999999999999999 0.2000000000000002 0  0.6000000000000001 0.2000000000000002 0  0.7999999999999998 0.2000000000000002 0  1 0.2000000000000002 0  1.2 0.2000000000000002 0  1.4 0.2000000000000002 0  1.6 0.2000000000000002 0  1.8 0.2000000000000002 0  2 0.2000000000000002 0  -2 0.3999999999999999 0  -1.8 0.3999999999999999 0  -1.6 0.3999999999999999 0  -1.4 0.3999999999999999 0  -1.2 0.3999999999999999 0  -1 0.3999999999999999 0  -0.8 0.3999999999999999 0  -0.6000000000000001 0.3999999999999999 0  -0.3999999999999999 0.3999999999999999 0  -0.2 0.3999999999999999 0  0 0.3999999999999999 0  0.2000000000000002 0.3999999999999999 0  0.3999999999999999 0.3999999999999999 0  0.6000000000000001 0.3999999999999999 0  0.7999999999999998 0.3999999999999999 0  1 0.3999999999999999 0  1.2 0.3999999999999999 0  1.4 0.3999999999999999 0  1.6 0.3999999999999999 0  1.8 0.3999999999999999 0  2 0.3999999999999999 0  -2 0.6000000000000001 0  -1.8 0.6000000000000001 0  -1.6 0.6000000000000001 0  -1.4 0.6000000000000001 0  -1.2 0.6000000000000001 0  -1 0.6000000000000001 0  -0.8 0.6000000000000001 0  -0.6000000000000001 0.6000000000000001 0  -0.3999999999999999 0.6000000000000001 0  -0.2 0.6000000000000001 0  0 0.6000000000000001 0  0.2000000000000002 0.6000000000000001 0  0.3999999999999999 0.6000000000000001 0  0.6000000000000001 0.6000000000000001 0  0.7999999999999998 0.6000000000000001 0  1 0.6000000000000001 0  1.2 0.6000000000000001 0  1.4 0.6000000000000001 0  1.6 0.6000000000000001 0  1.8 0.6000000000000001 0  2 0.6000000000000001 0  -2 0.7999999999999998 0  -1.8 0.7999999999999998 0  -1.6 0.7999999999999998 0  -1.4 0.7999999999999998 0  -1.2 0.7999999999999998 0  -1 0.7999999999999998 0  -0.8 0.7999999999999998 0  -0.6000000000000001 0.7999999999999998 0  -0.3999999999999999 0.7999999999999998 0  -0.2 0.7999999999999998 0  0 0.7999999999999998 0  0.2000000000000002 0.7999999999999998 0  0.3999999999999999 0.7999999999999998 0  0.6000000000000001 0.7999999999999998 0  0.7999999999999998 0.7999999999999998 0  1 0.7999999999999998 0  1.2 0.7999999999999998 0  1.4 0.7999999999999998 0  1.6 0.7999999999999998 0  1.8 0.7999999999999998 0  2 0.7999999999999998 0  -2 1 0  -1.8 1 0  -1.6 1 0  -1.4 1 0  -1.2 1 0  -1 1 0  -0.8 1 0  -0.6000000000000001 1 0  -0.3999999999999999 1 0  -0.2 1 0  0 1 0  0.2000000000000002 1 0  0.3999999999999999 1 0  0.6000000000000001 1 0  0.7999999999999998 1 0  1 1 0  1.2 1 0  1.4 1 0  1.6 1 0  1.8 1 0  2 1 0  -2 1.2 0  -1.8 1.2 0  -1.6 1.2 0  -1.4 1.2 0  -1.2 1.2 0  -1 1.2 0  -0.8 1.2 0  -0.6000000000000001 1.2 0  -0.3999999999999999 1.2 0  -0.2 1.2 0  0 1.2 0  0.2000000000000002 1.2 0  0.3999999999999999 1.2 0  0.6000000000000001 1.2 0  0.7999999999999998 1.2 0  1 1.2 0  1.2 1.2 0  1.4 1.2 0  1.6 1.2 0  1.8 1.2 0  2 1.2 0  -2 1.4 0  -1.8 1.4 0  -1.6 1.4 0  -1.4 1.4 0  -1.2 1.4 0  -1 1.4 0  -0.8 1.4 0  -0.6000000000000001 1.4 0  -0.3999999999999999 1.4 0  -0.2 1.4 0  0 1.4 0  0.2000000000000002 1.4 0  0.3999999999999999 1.4 0  0.6000000000000001 1.4 0  0.7999999999999998 1.4 0  1 1.4 0  1.2 1.4 0  1.4 1.4 0  1.6 1.4 0  1.8 1.4 0  2 1.4 0  -2 1.6 0  -1.8 1.6 0  -1.6 1.6 0  -1.4 1.6 0  -1.2 1.6 0  -1 1.6 0  -0.8 1.6 0  -0.6000000000000001 1.6 0  -0.3999999999999999 1.6 0  -0.2 1.6 0  0 1.6 0  0.2000000000000002 1.6 0  0.3999999999999999 1.6 0  0.6000000000000001 1.6 0  0.7999999999999998 1.6 0  1 1.6 0  1.2 1.6 0  1.4 1.6 0  1.6 1.6 0  1.8 1.6 0  2 1.6 0  -2 1.8 0  -1.8 1.8 0  -1.6 1.8 0  -1.4 1.8 0  -1.2 1.8 0  -1 1.8 0  -0.8 1.8 0  -0.6000000000000001 1.8 0  -0.3999999999999999 1.8 0  -0.2 1.8 0  0 1.8 0  0.2000000000000002 1.8 0  0.3999999999999999 1.8 0  0.6000000000000001 1.8 0  0.7999999999999998 1.8 0  1 1.8 0  1.2 1.8 0  1.4 1.8 0  1.6 1.8 0  1.8 1.8 0  2 1.8 0  -2 2 0  -1.8 2 0  -1.6 2 0  -1.4 2 0  -1.2 2 0  -1 2 0  -0.8 2 0  -0.6000000000000001 2 0  -0.3999999999999999 2 0  -0.2 2 0  0 2 0  0.2000000000000002 2 0  0.3999999999999999 2 0  0.6000000000000001 2 0  0.7999999999999998 2 0  1 2 0  1.2 2 0  1.4 2 0  1.6 2 0  1.8 2 0  2 2 0  </DataArray>
</Points>
<Cells>
[...]
<PointData  Scalars="f_8"> 
<DataArray  type="Float64"  Name="f_8"  format="ascii">4.7464101355654609e-01  4.7195680412452812e-01  4.6528909378930700e-01  4.5478647829347485e-01  4.4073313860999302e-01  4.2352694928159712e-01  4.0365729340308920e-01  3.8168225247374027e-01  3.5820559164874999e-01  3.3385432522257652e-01  3.0925775030233182e-01  2.8502876325138432e-01  2.6174808720051884e-01  2.3995179249778453e-01  2.2012223185242177e-01  2.0268228027206733e-01  1.8799260616726829e-01  1.7635164396599831e-01  1.6799803640178657e-01  1.6311563059134970e-01  1.6184174995366596e-01  4.7343787640520035e-01  4.7129590524336590e-01  4.6498291525881602e-01  4.5472019057334528e-01  4.4083295943038153e-01  4.2374238384448892e-01  4.0395128175105860e-01  3.8202580691116034e-01  3.5857494895962300e-01  3.3422945606276161e-01  3.0962153435658446e-01  2.8536640372038341e-01  2.6204648225159061e-01  2.4019864352515002e-01  2.2030466081689812e-01  2.0278464104176183e-01  1.8799297280773275e-01  1.7621607099802153e-01  1.6767097981249124e-01  1.6250365435833428e-01  1.6078539026152647e-01  4.7316398146048078e-01  4.7106255646919498e-01  4.6482497599008010e-01  4.5464615574561240e-01  4.4083795201154174e-01  4.2381495585769269e-01  4.0407701447861433e-01  3.8218926769073824e-01  3.5876079541977596e-01  3.3442307565201185e-01  3.0980940124016004e-01  2.8553623663620287e-01  2.6218724773625174e-01  2.4030044484162186e-01  2.2035857475704615e-01  2.0278261547651288e-01  1.8792799427046175e-01  1.7608299164669702e-01  1.6746873113645147e-01  1.6224021104681310e-01  1.6048804239251019e-01  4.7308462887964692e-01  4.7099065795361200e-01  4.6477295226492432e-01  4.5462151329654310e-01  4.4084338584942151e-01  4.2384920462764097e-01  4.0413588877941853e-01  3.8226662050048699e-01  3.5884935527624739e-01  3.3451512549025719e-01  3.0989731026442335e-01  2.8561286336956709e-01  2.6224623987749146e-01  2.4033646958473093e-01  2.2036752234142237e-01  2.0276182739463403e-01  1.8787657169861774e-01  1.7600223035348378e-01  1.6736268714883742e-01  1.6211628606874559e-01  1.6035720516554963e-01  4.7306587952609030e-01  4.7097411814400891e-01  4.6476272671927887e-01  4.5462059436056551e-01  4.4085330681890694e-01  4.2386999032808181e-01  4.0416621137118297e-01  3.8230407521207055e-01  3.5889079024452958e-01  3.3455697966324327e-01  3.0993592999648539e-01  2.8564478164004703e-01  2.6226841241020710e-01  2.4034646975468846e-01  2.2036370138295197e-01  2.0274344735024349e-01  1.8784391464919070e-01  1.7595667745766580e-01  1.6730674408194834e-01  1.6205350898959786e-01  1.6029196122705341e-01  4.7306552855656270e-01  4.7097449654252355e-01  4.6476519009083622e-01  4.5462617255384086e-01  4.4086255403881985e-01  4.2388291759117308e-01  4.0418229690117019e-01  3.8232233735399507e-01  3.5890990324777056e-01  3.3457541287628040e-01  3.0995209372003713e-01  2.8565716673738412e-01  2.6227571481900169e-01  2.4034769459568156e-01  2.2035824391568834e-01  2.0273114925753982e-01  1.8782509393620078e-01  1.7593212886122384e-01  1.6727770504312189e-01  1.6202158539882511e-01  1.6025900956514819e-01  4.7306896112350766e-01  4.7097816029870032e-01  4.6476950327328720e-01  4.5463144656835358e-01  4.4086893904408064e-01  4.2389037243160410e-01  4.0419058559142040e-01  3.8233105003149020e-01  3.5891849658171276e-01  3.3458326342729561e-01  3.0995855747035422e-01  2.8566163861717953e-01  2.6227768317323535e-01  2.4034678683167257e-01  2.2035426077854767e-01  2.0272408612957676e-01  1.8781514819775560e-01  1.7591969276577910e-01  1.6726334395651352e-01  1.6200600192272663e-01  1.6024299528146269e-01  4.7307185518562378e-01  4.7098111792069358e-01  4.6477263623867920e-01  4.5463483118845277e-01  4.4087259772026666e-01  4.2389426287730925e-01  4.0419459891595305e-01  3.8233501752490978e-01  3.5892220390260032e-01  3.3458647012443121e-01  3.0996101940124859e-01  2.8566313081898492e-01  2.6227802100541653e-01  2.4034584363762568e-01  2.2035198080424395e-01  2.0272049191488170e-01  1.8781034207906680e-01  1.7591385249294791e-01  1.6725671275819204e-01  1.6199887368962723e-01  1.6023569589906911e-01  4.7307354672883895e-01  4.7098282173130857e-01  4.6477437454971243e-01  4.5463661490437157e-01  4.4087442058022031e-01  4.2389609805374451e-01  4.0419639849144723e-01  3.8233671487087806e-01  3.5892371860025024e-01  3.3458771477680965e-01  3.0996190751440933e-01  2.8566358488304894e-01  2.6227797996516916e-01  2.4034526907779821e-01  2.2035086135367243e-01  2.0271884556674144e-01  1.8780821630992406e-01  1.7591132222983155e-01  1.6725387638705305e-01  1.6199584742175982e-01  1.6023260691517316e-01  4.7307437264466135e-01  4.7098364742082655e-01  4.6477520110220971e-01  4.5463743997461126e-01  4.4087523665103273e-01  4.2389689146349224e-01  4.0419714936912221e-01  3.8233739799389976e-01  3.5892430506837170e-01  3.3458817429791443e-01  3.0996221103582788e-01  2.8566370727919360e-01  2.6227790250588001e-01  2.4034498144403871e-01  2.2035036302795011e-01  2.0271814649460654e-01  1.8780733679752185e-01  1.7591029210474945e-01  1.6725273350224920e-01  1.6199463562385119e-01  1.6023137362856779e-01  4.7307475741333149e-01  4.7098403096352925e-01  4.6477558188910117e-01  4.5463781527321773e-01  4.4087560192541481e-01  4.2389724005041529e-01  4.0419747248358634e-01  3.8233768507119209e-01  3.5892454440589888e-01  3.3458835392379149e-01  3.0996231970692623e-01  2.8566373550103918e-01  2.6227784346997801e-01  2.4034483179256766e-01  2.2035012337786755e-01  2.0271782167928859e-01  1.8780693581073049e-01  1.7590982775637937e-01  1.6725222181628277e-01  1.6199409502543574e-01  1.6023082397893448e-01  4.7307502706221216e-01  4.7098430167256472e-01  4.6477585410175115e-01  4.5463808814734774e-01  4.4087587268752781e-01  4.2389750362104772e-01  4.0419772142760158e-01  3.8233790988301547e-01  3.5892473409754527e-01  3.3458849684868225e-01  3.0996240452886265e-01  2.8566375220687740e-01  2.6227778432598675e-01  2.4034469215598514e-01  2.2034990229377643e-01  2.0271752221540701e-01  1.8780656510629282e-01  1.7590939678389500e-01  1.6725174487535313e-01  1.6199358900534802e-01  1.6023030744117550e-01  4.7307547963149144e-01  4.7098476054181754e-01  4.6477632651732581e-01  4.5463857767782168e-01  4.4087637738094909e-01  4.2389801491157758e-01  4.0419822392767712e-01  3.8233838207580895e-01  3.5892514983219165e-01  3.3458882745267293e-01  3.0996262129667335e-01  2.8566382900301124e-01  2.6227770005031598e-01  2.4034443285222148e-01  2.2034946272951200e-01  2.0271690681654672e-01  1.8780578818392263e-01  1.7590848204417972e-01  1.6725072425147330e-01  1.6199250089443021e-01  1.6022919446829123e-01  4.7307649571421961e-01  4.7098579771475846e-01  4.6477741717952659e-01  4.5463974244749400e-01  4.4087761927030161e-01  4.2389931593302138e-01  4.0419954450432294e-01  3.8233966323106217e-01  3.5892631778735101e-01  3.3458980001176492e-01  3.0996331526178456e-01  2.8566416783562998e-01  2.6227762105334596e-01  2.4034389326453079e-01  2.2034844427141198e-01  2.0271541837772328e-01  1.8780386649154074e-01  1.7590619028412360e-01  1.6724814874282468e-01  1.6198974604118974e-01  1.6022637633411740e-01  4.7307847800962233e-01  4.7098784958344703e-01  4.6477966131604598e-01  4.5464226489626852e-01  4.4088045179273094e-01  4.2390242612850010e-01  4.0420283456062051e-01  3.8234297690038049e-01  3.5892945418553712e-01  3.3459253221592428e-01  3.0996541143622885e-01  2.8566541268310025e-01  2.6227783566989521e-01  2.4034295186848748e-01  2.2034628669098430e-01  2.0271205755960697e-01  1.8779939061338793e-01  1.7590075933264526e-01  1.6724198569875434e-01  1.6198312314024163e-01  1.6021959727370211e-01  4.7308112932847618e-01  4.7099072984067664e-01  4.6478318996379325e-01  4.5464675019240214e-01  4.4088604017062760e-01  4.2390907623816854e-01  4.0421031702362414e-01  3.8235089693165158e-01  3.5893729178742134e-01  3.3459969358978409e-01  3.0997128530043361e-01  2.8566942596586847e-01  2.6227950419553320e-01  2.4034192286077169e-01  2.2034237094374631e-01  2.0270524984232402e-01  1.8778987728156768e-01  1.7588891232426548e-01  1.6722834236791642e-01  1.6196835203275142e-01  1.6020445127267385e-01  4.7308093072188956e-01  4.7099126178561229e-01  4.6478577680564565e-01  4.5465237502601175e-01  4.4089520876428417e-01  4.2392176279984367e-01  4.0422598422953487e-01  3.8236857343798697e-01  3.5895568757597318e-01  3.3461733456597392e-01  3.0998665174113910e-01  2.8568108343012011e-01  2.6228621948079733e-01  2.4034276088153919e-01  2.2033677057713455e-01  2.0269307754905191e-01  1.8777145662030739e-01  1.7586502563389667e-01  1.6720019873250319e-01  1.6193751475271992e-01  1.6017272085784678e-01  4.7306434667861957e-01  4.7097696859358945e-01  4.6477776330568044e-01  4.5465347579642845e-01  4.4090680493859641e-01  4.2394376586263971e-01  4.0425700903593542e-01  3.8240621779704986e-01  3.5899685618718358e-01  3.3465856471681804e-01  3.1002441441023387e-01  2.8571204627996966e-01  2.6230746812131722e-01  2.4035198192370266e-01  2.2033240408686824e-01  2.0267444678527910e-01  1.8773887822742094e-01  1.7581989243090332e-01  1.6714500912912897e-01  1.6187579932939999e-01  1.6010879665176392e-01  4.7298991237126387e-01  4.7091039203428875e-01  4.6473105462676401e-01  4.5463371985604689e-01  4.4091638515355047e-01  4.2398124492957284e-01  4.0431814481569622e-01  3.8248490843218852e-01  3.5908594541086486e-01  3.3475049412654673e-01  3.1011173146238602e-01  2.8578778678781702e-01  2.6236543950105429e-01  2.4038698168452713e-01  2.2034041744142163e-01  2.0265287608318111e-01  1.8768686087773090e-01  1.7573875358292201e-01  1.6703885012770736e-01  1.6175209945038624e-01  1.5997861393703242e-01  4.7272356309842362e-01  4.7068569781165714e-01  4.6458103979734616e-01  4.5456621899840105e-01  4.4092642266855353e-01  4.2405752006423597e-01  4.0444647347445406e-01  3.8265010342651917e-01  3.5927288604764684e-01  3.3494475189772899e-01  3.1029992267751444e-01  2.8595772968515382e-01  2.6250615704074670e-01  2.4048858900363218e-01  2.2039395652038321e-01  2.0265021324531732e-01  1.8762086319021820e-01  1.7560414769408741e-01  1.6683451900359031e-01  1.6148623478012236e-01  1.5967938626954181e-01  4.7153463745163121e-01  4.7003020526311984e-01  4.6427553433461238e-01  4.5449837981078234e-01  4.4102402883976571e-01  4.2427103086475643e-01  4.0473936892334228e-01  3.8299363956203497e-01  3.5964332824452838e-01  3.3532194803121457e-01  3.1066653295839336e-01  2.8629868849724255e-01  2.6280808251257431e-01  2.4073891613310844e-01  2.2057956052459710e-01  2.0275520044934897e-01  1.8762300108545540e-01  1.7546901056319419e-01  1.6650570525125322e-01  1.6086872189205209e-01  1.5861078869481421e-01  </DataArray> 
</PointData> 
</Piece>
</UnstructuredGrid>
</VTKFile>