<?xml version="1.0"?>
<VTKFile type="UnstructuredGrid"  version="0.1"  >
<UnstructuredGrid>
<Piece  NumberOfPoints="441" NumberOfCells="800">
<Points>
<DataArray  type="Float64"  NumberOfComponents="3"  format="ascii">-2 -2 0  -1.8 -2 0  -1.6 -2 0  -1.4 -2 0  -1.2 -2 0  -1 -2 0  -0.8 -2 0  -0.6000000000000001 -2 0  -0.3999999999999999 -2 0  -0.2 -2 0  0 -2 0  0.2000000000000002 -2 0  0.3999999999999999 -2 0  0.6000000000000001 -2 0  0.7999999999999998 -2 0  1 -2 0  1.2 -2 0  1.4 -2 0  1.6 -2 0  1.8 -2 0  2 -2 0  -2 -1.8 0  -1.8 -1.8 0  -1.6 -1.8 0  -1.4 -1.8 0  -1.2 -1.8 0  -1 -1.8 0  -0.8 -1.8 0  -0.6000000000000001 -1.8 0  -0.3999999999999999 -1.8 0  -0.2 -1.8 0  0 -1.8 0  0.2000000000000002 -1.8 0  0.3999999999999999 -1.8 0  0.6000000000000001 -1.8 0  0.7999999999999998 -1.8 0  1 -1.8 0  1.2 -1.8 0  1.4 -1.8 0  1.6 -1.8 0  1.8 -1.8 0  2 -1.8 0  -2 -1.6 0  -1.8 -1.6 0  -1.6 -1.6 0  -1.4 -1.6 0  -1.2 -1.6 0  -1 -1.6 0  -0.8 -1.6 0  -0.6000000000000001 -1.6 0  -0.3999999999999999 -1.6 0  -0.2 -1.6 0  0 -1.6 0  0.2000000000000002 -1.6 0  0.3999999999999999 -1.6 0  0.6000000000000001 -1.6 0  0.7999999999999998 -1.6 0  1 -1.6 0  1.2 -1.6 0  1.4 -1.6 0  1.6 -1.6 0  1.8 -1.6 0  2 -1.6 0  -2 -1.4 0  -1.8 -1.4 0  -1.6 -1.4 0  -1.4 -1.4 0  -1.2 -1.4 0  -1 -1.4 0  -0.8 -1.4 0  -0.6000000000000001 -1.4 0  -0.3999999999999999 -1.4 0  -0.2 -1.4 0  0 -1.4 0  0.2000000000000002 -1.4 0  0.3999999999999999 -1.4 0  0.6000000000000001 -1.4 0  0.7999999999999998 -1.4 0  1 -1.4 0  1.2 -1.4 0  1.4 -1.4 0  1.6 -1.4 0  1.8 -1.4 0  2 -1.4 0  -2 -1.2 0  -1.8 -1.2 0  -1.6 -1.2 0  -1.4 -1.2 0  -1.2 -1.2 0  -1 -1.2 0  -0.8 -1.2 0  -0.6000000000000001 -1.2 0  -0.3999999999999999 -1.2 0  -0.2 -1.2 0  0 -1.2 0  0.2000000000000002 -1.2 0  0.3999999999999999 -1.2 0  0.6000000000000001 -1.2 0  0.7999999999999998 -1.2 0  1 -1.2 0  1.2 -1.2 0  1.4 -1.2 0  1.6 -1.2 0  1.8 -1.2 0  2 -1.2 0  -2 -1 0  -1.8 -1 0  -1.6 -1 0  -1.4 -1 0  -1.2 -1 0  -1 -1 0  -0.8 -1 0  -0.6000000000000001 -1 0  -0.3999999999999999 -1 0  -0.2 -1 0  0 -1 0  0.2000000000000002 -1 0  0.3999999999999999 -1 0  0.6000000000000001 -1 0  0.7999999999999998 -1 0  1 -1 0  1.2 -1 0  1.4 -1 0  1.6 -1 0  1.8 -1 0  2 -1 0  -2 -0.8 0  -1.8 -0.8 0  -1.6 -0.8 0  -1.4 -0.8 0  -1.2 -0.8 0  -1 -0.8 0  -0.8 -0.8 0  -0.6000000000000001 -0.8 0  -0.3999999999999999 -0.8 0  -0.2 -0.8 0  0 -0.8 0  0.2000000000000002 -0.8 0  0.3999999999999999 -0.8 0  0.6000000000000001 -0.8 0  0.7999999999999998 -0.8 0  1 -0.8 0  1.2 -0.8 0  1.4 -0.8 0  1.6 -0.8 0  1.8 -0.8 0  2 -0.8 0  -2 -0.6000000000000001 0  -1.8 -0.6000000000000001 0  -1.6 -0.6000000000000001 0  -1.4 -0.6000000000000001 0  -1.2 -0.6000000000000001 0  -1 -0.6000000000000001 0  -0.8 -0.6000000000000001 0  -0.6000000000000001 -0.6000000000000001 0  -0.3999999999999999 -0.6000000000000001 0  -0.2 -0.6000000000000001 0  0 -0.6000000000000001 0  0.2000000000000002 -0.6000000000000001 0  0.3999999999999999 -0.6000000000000001 0  0.6000000000000001 -0.6000000000000001 0  0.7999999999999998 -0.6000000000000001 0  1 -0.6000000000000001 0  1.2 -0.6000000000000001 0  1.4 -0.6000000000000001 0  1.6 -0.6000000000000001 0  1.8 -0.6000000000000001 0  2 -0.6000000000000001 0  -2 -0.3999999999999999 0  -1.8 -0.3999999999999999 0  -1.6 -0.3999999999999999 0  -1.4 -0.3999999999999999 0  -1.2 -0.3999999999999999 0  -1 -0.3999999999999999 0  -0.8 -0.3999999999999999 0  -0.6000000000000001 -0.3999999999999999 0  -0.3999999999999999 -0.3999999999999999 0  -0.2 -0.3999999999999999 0  0 -0.3999999999999999 0  0.2000000000000002 -0.3999999999999999 0  0.3999999999999999 -0.3999999999999999 0  0.6000000000000001 -0.3999999999999999 0  0.7999999999999998 -0.3999999999999999 0  1 -0.3999999999999999 0  1.2 -0.3999999999999999 0  1.4 -0.3999999999999999 0  1.6 -0.3999999999999999 0  1.8 -0.3999999999999999 0  2 -0.3999999999999999 0  -2 -0.2 0  -1.8 -0.2 0  -1.6 -0.2 0  -1.4 -0.2 0  -1.2 -0.2 0  -1 -0.2 0  -0.8 -0.2 0  -0.6000000000000001 -0.2 0  -0.3999999999999999 -0.2 0  -0.2 -0.2 0  0 -0.2 0  0.2000000000000002 -0.2 0  0.3999999999999999 -0.2 0  0.6000000000000001 -0.2 0  0.7999999999999998 -0.2 0  1 -0.2 0  1.2 -0.2 0  1.4 -0.2 0  1.6 -0.2 0  1.8 -0.2 0  2 -0.2 0  -2 0 0  -1.8 0 0  -1.6 0 0  -1.4 0 0  -1.2 0 0  -1 0 0  -0.8 0 0  -0.6000000000000001 0 0  -0.3999999999999999 0 0  -0.2 0 0  0 0 0  0.2000000000000002 0 0  0.3999999999999999 0 0  0.6000000000000001 0 0  0.7999999999999998 0 0  1 0 0  1.2 0 0  1.4 0 0  1.6 0 0  1.8 0 0  2 0 0  -2 0.2000000000000002 0  -1.8 0.2000000000000002 0  -1.6 0.2000000000000002 0  -1.4 0.2000000000000002 0  -1.2 0.2000000000000002 0  -1 0.2000000000000002 0  -0.8 0.2000000000000002 0  -0.6000000000000001 0.2000000000000002 0  -0.3999999999999999 0.2000000000000002 0  -0.2 0.2000000000000002 0  0 0.2000000000000002 0  0.2000000000000002 0.2000000000000002 0  0.3999999999999999 0.2000000000000002 0  0.6000000000000001 0.2000000000000002 0  0.7999999999999998 0.2000000000000002 0  1 0.2000000000000002 0  1.2 0.2000000000000002 0  1.4 0.2000000000000002 0  1.6 0.2000000000000002 0  1.8 0.2000000000000002 0  2 0.2000000000000002 0  -2 0.3999999999999999 0  -1.8 0.3999999999999999 0  -1.6 0.3999999999999999 0  -1.4 0.3999999999999999 0  -1.2 0.3999999999999999 0  -1 0.3999999999999999 0  -0.8 0.3999999999999999 0  -0.6000000000000001 0.3999999999999999 0  -0.3999999999999999 0.3999999999999999 0  -0.2 0.3999999999999999 0  0 0.3999999999999999 0  0.2000000000000002 0.3999999999999999 0  0.3999999999999999 0.3999999999999999 0  0.6000000000000001 0.3999999999999999 0  0.7999999999999998 0.3999999999999999 0  1 0.3999999999999999 0  1.2 0.3999999999999999 0  1.4 0.3999999999999999 0  1.6 0.3999999999999999 0  1.8 0.3999999999999999 0  2 0.3999999999999999 0  -2 0.6000000000000001 0  -1.8 0.6000000000000001 0  -1.6 0.6000000000000001 0  -1.4 0.6000000000000001 0  -1.2 0.6000000000000001 0  -1 0.6000000000000001 0  -0.8 0.6000000000000001 0  -0.6000000000000001 0.6000000000000001 0  -0.3999999999999999 0.6000000000000001 0  -0.2 0.6000000000000001 0  0 0.6000000000000001 0  0.2000000000000002 0.6000000000000001 0  0.3999999999999999 0.6000000000000001 0  0.6000000000000001 0.6000000000000001 0  0.7999999999999998 0.6000000000000001 0  1 0.6000000000000001 0  1.2 0.6000000000000001 0  1.4 0.6000000000000001 0  1.6 0.6000000000000001 0  1.8 0.6000000000000001 0  2 0.6000000000000001 0  -2 0.7999999999999998 0  -1.8 0.7999999999999998 0  -1.6 0.7999999999999998 0  -1.4 0.7999999999999998 0  -1.2 0.7999999999999998 0  -1 0.7999999999999998 0  -0.8 0.7999999999999998 0  -0.6000000000000001 0.7999999999999998 0  -0.3999999999999999 0.7999999999999998 0  -0.2 0.7999999999999998 0  0 0.7999999999999998 0  0.2000000000000002 0.7999999999999998 0  0.3999999999999999 0.7999999999999998 0  0.6000000000000001 0.7999999999999998 0  0.7999999999999998 0.7999999999999998 0  1 0.7999999999999998 0  1.2 0.7999999999999998 0  1.4 0.7999999999999998 0  1.6 0.7999999999999998 0  1.8 0.7999999999999998 0  2 0.7999999999999998 0  -2 1 0  -1.8 1 0  -1.6 1 0  -1.4 1 0  -1.2 1 0  -1 1 0  -0.8 1 0  -0.6000000000000001 1 0  -0.3999999999999999 1 0  -0.2 1 0  0 1 0  0.2000000000000002 1 0  0.3999999999999999 1 0  0.6000000000000001 1 0  0.7999999999999998 1 0  1 1 0  1.2 1 0  1.4 1 0  1.6 1 0  1.8 1 0  2 1 0  -2 1.2 0  -1.8 1.2 0  -1.6 1.2 0  -1.4 1.2 0  -1.2 1.2 0  -1 1.2 0  -0.8 1.2 0  -0.6000000000000001 1.2 0  -0.3999999999999999 1.2 0  -0.2 1.2 0  0 1.2 0  0.2000000000000002 1.2 0  0.3999999999999999 1.2 0  0.6000000000000001 1.2 0  0.7999999999999998 1.2 0  1 1.2 0  1.2 1.2 0  1.4 1.2 0  1.6 1.2 0  1.8 1.2 0  2 1.2 0  -2 1.4 0  -1.8 1.4 0  -1.6 1.4 0  -1.4 1.4 0  -1.2 1.4 0  -1 1.4 0  -0.8 1.4 0  -0.6000000000000001 1.4 0  -0.3999999999999999 1.4 0  -0.2 1.4 0  0 1.4 0  0.2000000000000002 1.4 0  0.3999999999999999 1.4 0  0.6000000000000001 1.4 0  0.7999999999999998 1.4 0  1 1.4 0  1.2 1.4 0  1.4 1.4 0  1.6 1.4 0  1.8 1.4 0  2 1.4 0  -2 1.6 0  -1.8 1.6 0  -1.6 1.6 0  -1.4 1.6 0  -1.2 1.6 0  -1 1.6 0  -0.8 1.6 0  -0.6000000000000001 1.6 0  -0.3999999999999999 1.6 0  -0.2 1.6 0  0 1.6 0  0.2000000000000002 1.6 0  0.3999999999999999 1.6 0  0.6000000000000001 1.6 0  0.7999999999999998 1.6 0  1 1.6 0  1.2 1.6 0  1.4 1.6 0  1.6 1.6 0  1.8 1.6 0  2 1.6 0  -2 1.8 0  -1.8 1.8 0  -1.6 1.8 0  -1.4 1.8 0  -1.2 1.8 0  -1 1.8 0  -0.8 1.8 0  -0.6000000000000001 1.8 0  -0.3999999999999999 1.8 0  -0.2 1.8 0  0 1.8 0  0.2000000000000002 1.8 0  0.3999999999999999 1.8 0  0.6000000000000001 1.8 0  0.7999999999999998 1.8 0  1 1.8 0  1.2 1.8 0  1.4 1.8 0  1.6 1.8 0  1.8 1.8 0  2 1.8 0  -2 2 0  -1.8 2 0  -1.6 2 0  -1.4 2 0  -1.2 2 0  -1 2 0  -0.8 2 0  -0.6000000000000001 2 0  -0.3999999999999999 2 0  -0.2 2 0  0 2 0  0.2000000000000002 2 0  0.3999999999999999 2 0  0.6000000000000001 2 0  0.7999999999999998 2 0  1 2 0  1.2 2 0  1.4 2 0  1.6 2 0  1.8 2 0  2 2 0  </DataArray>
</Points>
<Cells>
[...]
<PointData  Scalars="f_8"> 
<DataArray  type="Float64"  Name="f_8"  format="ascii">8.1093933400483403e-02  7.9783687108816156e-02  7.6587868333036560e-02  7.1723040790490217e-02  6.5524062452475648e-02  5.8399634345020969e-02  5.0784455414204413e-02  4.3094382355500227e-02  3.5690101544733926e-02  2.8852885418727502e-02  2.2773630942076642e-02  1.7554149984816993e-02  1.3218040440631337e-02  9.7276318223941238e-03  7.0034637828069093e-03  4.9433424187541996e-03  3.4389606616978003e-03  2.3890941337413644e-03  1.7092785913838341e-03  1.3385143319548435e-03  1.2438942935870888e-03  8.0597185939095289e-02  7.9560397930371313e-02  7.6551839665212618e-02  7.1811029543073682e-02  6.5685823501330134e-02  5.8594073654177806e-02  5.0978830379209424e-02  4.3264585882367534e-02  3.5820858213869662e-02  2.8937293764002951e-02  2.2811936379573339e-02  1.7551927883853166e-02  1.3184111120388049e-02  9.6720391832575726e-03  6.9357634550694120e-03  4.8713067622714878e-03  3.3676538240437880e-03  2.3201217203959361e-03  1.6398717005986362e-03  1.2599379895492971e-03  1.1384131328658958e-03  8.0549720240092729e-02  7.9532780495760624e-02  7.6560409918879663e-02  7.1855384955182122e-02  6.5756388186747561e-02  5.8677295699211686e-02  5.1060889285856358e-02  4.3333921128123849e-02  3.5869624104156991e-02  2.8961838204184472e-02  2.2812474559444705e-02  1.7531657304250183e-02  1.3148048206440508e-02  9.6258371147197250e-03  6.8847061047528227e-03  4.8195880106064069e-03  3.3179714479615956e-03  2.2735636376724948e-03  1.5960677332322098e-03  1.2175095366872980e-03  1.0959016396663885e-03  8.0571053771948828e-02  7.9556480119216996e-02  7.6589592875892593e-02  7.1890272075388811e-02  6.5794557047277324e-02  5.8714690694316507e-02  5.1093042864637006e-02  4.3357034142673612e-02  3.5881298860527586e-02  2.8961384879739895e-02  2.2800818849713439e-02  1.7510953225199855e-02  1.3121136611608608e-02  9.5956882564188304e-03  6.8539529741508502e-03  4.7902110195009737e-03  3.2911494046477512e-03  2.2496721982199265e-03  1.5747894906910200e-03  1.1980171722523287e-03  1.0770763964988907e-03  8.0592697678522868e-02  7.9578226452004491e-02  7.6611226889427328e-02  7.1911142199910585e-02  6.5813565339421259e-02  5.8730496050157115e-02  5.1104372363996793e-02  4.3362987336615692e-02  3.5881555368306943e-02  2.8956269399310348e-02  2.2791223938788921e-02  1.7498156529158225e-02  1.3106568332291447e-02  9.5807053868452452e-03  6.8396632124916000e-03  4.7773683602355599e-03  3.2801225383796307e-03  2.2404715204585477e-03  1.5671312322310836e-03  1.1914034838821398e-03  1.0708756961599292e-03  8.0603520663446351e-02  7.9588896279507146e-02  7.6621305033688802e-02  7.1920157397029977e-02  6.5821039142823431e-02  5.8736003204054789e-02  5.1107617077677948e-02  4.3363868936200964e-02  3.5880200576658222e-02  2.8953020093493664e-02  2.2786583320329117e-02  1.7492708150050496e-02  1.3100888095176356e-02  9.5752857156398644e-03  6.8348625350717887e-03  4.7733906157123775e-03  3.2770235128655591e-03  2.2381835279563522e-03  1.5654958571168242e-03  1.1902034860553894e-03  1.0698606867808880e-03  8.0607107256323723e-02  7.9592386730958573e-02  7.6624503538337219e-02  7.1922881845284586e-02  6.5823137613258906e-02  5.8737372498555408e-02  5.1108218969433981e-02  4.3363738783454085e-02  3.5879444340918470e-02  2.8951798978403345e-02  2.2785088882682658e-02  1.7491133427280935e-02  1.3099401143016397e-02  9.5740108300319642e-03  6.8338719233683254e-03  4.7727063440445106e-03  3.2766271266703442e-03  2.2380294248952452e-03  1.5655244354755081e-03  1.1903510595158548e-03  1.0700647018319692e-03  8.0607863745151553e-02  7.9593105849200915e-02  7.6625134376239856e-02  7.1923381531053834e-02  6.5823476482248539e-02  5.8737538196356409e-02  5.1108218510108813e-02  4.3363597730426383e-02  3.5879202843031859e-02  2.8951505213244123e-02  2.2784791222654751e-02  1.7490873045914047e-02  1.3099206659731605e-02  9.5738959990000812e-03  6.8338365269010578e-03  4.7727396423265771e-03  3.2767126829228031e-03  2.2381499785116108e-03  1.5656657026035339e-03  1.1905037697917452e-03  1.0702246736027056e-03  8.0607931976516056e-02  7.9593163724546029e-02  7.6625174930560383e-02  7.1923400175695207e-02  6.5823471851180718e-02  5.8737512526000388e-02  5.1108177406635646e-02  4.3363549284221654e-02  3.5879156206600919e-02  2.8951468919265189e-02  2.2784771620006198e-02  1.7490873224962476e-02  1.3099226116076480e-02  9.5739310858948701e-03  6.8338815395015207e-03  4.7727882307154121e-03  3.2767592463980172e-03  2.2381907501318630e-03  1.5656993537756208e-03  1.1905314972768177e-03  1.0702498312148926e-03  8.0607921696186302e-02  7.9593151632960338e-02  7.6625161136488762e-02  7.1923385217191757e-02  6.5823456697794283e-02  5.8737498483455226e-02  5.1108165925041443e-02  4.3363541696485167e-02  3.5879153449191806e-02  2.8951471303021128e-02  2.2784778715285576e-02  1.7490883900245755e-02  1.3099238728160253e-02  9.5739437767701357e-03  6.8338925655843019e-03  4.7727962451878962e-03  3.2767634762295560e-03  2.2381910469888187e-03  1.5656961375094742e-03  1.1905256372640796e-03  1.0702425157922346e-03  8.0607919031979072e-02  7.9593148846512474e-02  7.6625158422366529e-02  7.1923382803779801e-02  6.5823454815500559e-02  5.8737497325373117e-02  5.1108165606301680e-02  4.3363542221015801e-02  3.5879154693398974e-02  2.8951473023869342e-02  2.2784780585047799e-02  1.7490885562810591e-02  1.3099239864537293e-02  9.5739441631533598e-03  6.8338921081219162e-03  4.7727949817757617e-03  3.2767615454052513e-03  2.2381886341113254e-03  1.5656934154511903e-03  1.1905227205205552e-03  1.0702394427772241e-03  8.0607918630052081e-02  7.9593148457546337e-02  7.6625158231568222e-02  7.1923382937748095e-02  6.5823455328417130e-02  5.8737498197418504e-02  5.1108166753141969e-02  4.3363543512220812e-02  3.5879155976817845e-02  2.8951474152249922e-02  2.2784781440679091e-02  1.7490886075995936e-02  1.3099240022562752e-02  9.5739440081652003e-03  6.8338917246626345e-03  4.7727944770159219e-03  3.2767610266204758e-03  2.2381881881870232e-03  1.5656930941218823e-03  1.1905225331457665e-03  1.0702393565038518e-03  8.0607902093215403e-02  7.9593133083177378e-02  7.6625144845344689e-02  7.1923372082810452e-02  6.5823447288360509e-02  5.8737493028647225e-02  5.1108164318453816e-02  4.3363543513743427e-02  3.5879157990917836e-02  2.8951477670087020e-02  2.2784785915700521e-02  1.7490890975546507e-02  1.3099244877301564e-02  9.5739484519039800e-03  6.8338955189076291e-03  4.7727975178294569e-03  3.2767633347056172e-03  2.2381898849964800e-03  1.5656943670189873e-03  1.1905235920331623e-03  1.0702403842702409e-03  8.0607853948355346e-02  7.9593089249746909e-02  7.6625103401116890e-02  7.1923331316677358e-02  6.5823406238655985e-02  5.8737451749025359e-02  5.1108123838861437e-02  4.3363505537865880e-02  3.5879124435706018e-02  2.8951450186013514e-02  2.2784765517173854e-02  1.7490877864710586e-02  1.3099238479821583e-02  9.5739476230368558e-03  6.8338988395513708e-03  4.7728035899823789e-03  3.2767710001006928e-03  2.2381983199484608e-03  1.5657030405689975e-03  1.1905321062045198e-03  1.0702482412406574e-03  8.0608065825758066e-02  7.9593296284988235e-02  7.6625270419592675e-02  7.1923429849657355e-02  6.5823418091917579e-02  5.8737370985682012e-02  5.1107956821650403e-02  4.3363269012093010e-02  3.5878842062607816e-02  2.8951148291313244e-02  2.2784468962156766e-02  1.7490606831005312e-02  1.3099006640545882e-02  9.5737617732991991e-03  6.8337597077025103e-03  4.7727073374058630e-03  3.2767108717514397e-03  2.2381660069367066e-03  1.5656895054399474e-03  1.1905278397038423e-03  1.0702431137566352e-03  8.0610309947615186e-02  7.9595455655795191e-02  7.6627168449761779e-02  7.1924916781942197e-02  6.5824385018921322e-02  5.8737761317017904e-02  5.1107772122195270e-02  4.3362566853540313e-02  3.5877725521175491e-02  2.8949749014312031e-02  2.2782927366851422e-02  1.7489053451905507e-02  1.3097547899800254e-02  9.5724719270159370e-03  6.8326790115890088e-03  4.7718451070251086e-03  3.2760513958704288e-03  2.2376752592029284e-03  1.5653211374707110e-03  1.1902277644641273e-03  1.0699528195245705e-03  8.0619608122375883e-02  7.9604460476419253e-02  7.6635397674026412e-02  7.1931907848753557e-02  6.5829730303209100e-02  5.8741161017110063e-02  5.1109084932843586e-02  4.3361839083046527e-02  3.5875187521843120e-02  2.8945778864513768e-02  2.2777991221771828e-02  1.7483637087660243e-02  1.3092094025369259e-02  9.5673339074086820e-03  6.8280957782523265e-03  4.7679363526481021e-03  3.2728282002539928e-03  2.2350597271591668e-03  1.5631692646503445e-03  1.1883518095496402e-03  1.0681419103110862e-03  8.0642493207816746e-02  7.9627041943636803e-02  7.6657183530661616e-02  7.1952057581296566e-02  6.5847124375208690e-02  5.8754628067735307e-02  5.1117675790815824e-02  4.3365050043082679e-02  3.5873072502634877e-02  2.8938933763235680e-02  2.2767430999754597e-02  1.7470608962688913e-02  1.3077876347250854e-02  9.5530625165037592e-03  6.8146436034658151e-03  4.7558541489093626e-03  3.2623398937251967e-03  2.2260977403080365e-03  1.5554338080851502e-03  1.1813817056711823e-03  1.0613898314312802e-03  8.0671789205589803e-02  7.9658382025761296e-02  7.6692866901235862e-02  7.1991573783820928e-02  6.5887676390689182e-02  5.8792217515383376e-02  5.1148264965765529e-02  4.3385502372410380e-02  3.5881716927073093e-02  2.8935719106747731e-02  2.2753729942664468e-02  1.7448789185763772e-02  1.3050775295653261e-02  9.5234870357557618e-03  6.7849783004913702e-03  4.7278173966309803e-03  3.2368870714852057e-03  2.2034462279822524e-03  1.5351763998642373e-03  1.1626618270950311e-03  1.0431248473763766e-03  8.0637675850582277e-02  7.9645240719452975e-02  7.6714659667485433e-02  7.2046659981956390e-02  6.5965980281093184e-02  5.8880192118122066e-02  5.1232438368668066e-02  4.3454874192792640e-02  3.5929096189265139e-02  2.8958102265736928e-02  2.2751896706468967e-02  1.7426368723740853e-02  1.3013065379165164e-02  9.4762830372496169e-03  6.7335996680310409e-03  4.6764302416373244e-03  3.1881391441651728e-03  2.1583768582124152e-03  1.4933552823337679e-03  1.1225613806014518e-03  1.0028633431206427e-03  8.0148290636815958e-02  7.9425078707148919e-02  7.6680666258287219e-02  7.2137577933612293e-02  6.6132475293991327e-02  5.9081143145561066e-02  5.1434381804573839e-02  4.3632614726897147e-02  3.6066245734976417e-02  2.9046905661132823e-02  2.2792173829378690e-02  1.7423734004620210e-02  1.2976765319697657e-02  9.4170285542663507e-03  6.6616938022602051e-03  4.6003471197427906e-03  3.1135401208594359e-03  2.0873831908780694e-03  1.4237385356906055e-03  1.0463385757890355e-03  9.0353348806733967e-04  </DataArray> 
</PointData> 
</Piece>
</UnstructuredGrid>
</VTKFile>