<?xml version="1.0"?>
<VTKFile type="UnstructuredGrid"  version="0.1"  >
<UnstructuredGrid>
<Piece  NumberOfPoints="441" NumberOfCells="800">
<Points>
<DataArray  type="Float64"  NumberOfComponents="3"  format="ascii">-2 -2 0  -1.8 -2 0  -1.6 -2 0  -1.4 -2 0  -1.2 -2 0  -1 -2 0  -0.8 -2 0  -0.6000000000000001 -2 0  -0.3999999999999999 -2 0  -0.2 -2 0  0 -2 0  0.2000000000000002 -2 0  0.3999999999999999 -2 0  0.6000000000000001 -2 0  0.7999999999999998 -2 0  1 -2 0  1.2 -2 0  1.4 -2 0  1.6 -2 0  1.8 -2 0  2 -2 0  -2 -1.8 0  -1.8 -1.8 0  -1.6 -1.8 0  -1.4 -1.8 0  -1.2 -1.8 0  -1 -1.8 0  -0.8 -1.8 0  -0.6000000000000001 -1.8 0  -0.3999999999999999 -1.8 0  -0.2 -1.8 0  0 -1.8 0  0.2000000000000002 -1.8 0  0.3999999999999999 -1.8 0  0.6000000000000001 -1.8 0  0.7999999999999998 -1.8 0  1 -1.8 0  1.2 -1.8 0  1.4 -1.8 0  1.6 -1.8 0  1.8 -1.8 0  2 -1.8 0  -2 -1.6 0  -1.8 -1.6 0  -1.6 -1.6 0  -1.4 -1.6 0  -1.2 -1.6 0  -1 -1.6 0  -0.8 -1.6 0  -0.6000000000000001 -1.6 0  -0.3999999999999999 -1.6 0  -0.2 -1.6 0  0 -1.6 0  0.2000000000000002 -1.6 0  0.3999999999999999 -1.6 0  0.6000000000000001 -1.6 0  0.7999999999999998 -1.6 0  1 -1.6 0  1.2 -1.6 0  1.4 -1.6 0  1.6 -1.6 0  1.8 -1.6 0  2 -1.6 0  -2 -1.4 0  -1.8 -1.4 0  -1.6 -1.4 0  -1.4 -1.4 0  -1.2 -1.4 0  -1 -1.4 0  -0.8 -1.4 0  -0.6000000000000001 -1.4 0  -0.3999999999999999 -1.4 0  -0.2 -1.4 0  0 -1.4 0  0.2000000000000002 -1.4 0  0.3999999999999999 -1.4 0  0.6000000000000001 -1.4 0  0.7999999999999998 -1.4 0  1 -1.4 0  1.2 -1.4 0  1.4 -1.4 0  1.6 -1.4 0  1.8 -1.4 0  2 -1.4 0  -2 -1.2 0  -1.8 -1.2 0  -1.6 -1.2 0  -1.4 -1.2 0  -1.2 -1.2 0  -1 -1.2 0  -0.8 -1.2 0  -0.6000000000000001 -1.2 0  -0.3999999999999999 -1.2 0  -0.2 -1.2 0  0 -1.2 0  0.2000000000000002 -1.2 0  0.3999999999999999 -1.2 0  0.6000000000000001 -1.2 0  0.7999999999999998 -1.2 0  1 -1.2 0  1.2 -1.2 0  1.4 -1.2 0  1.6 -1.2 0  1.8 -1.2 0  2 -1.2 0  -2 -1 0  -1.8 -1 0  -1.6 -1 0  -1.4 -1 0  -1.2 -1 0  -1 -1 0  -0.8 -1 0  -0.6000000000000001 -1 0  -0.3999999999999999 -1 0  -0.2 -1 0  0 -1 0  0.2000000000000002 -1 0  0.3999999999999999 -1 0  0.6000000000000001 -1 0  0.7999999999999998 -1 0  1 -1 0  1.2 -1 0  1.4 -1 0  1.6 -1 0  1.8 -1 0  2 -1 0  -2 -0.8 0  -1.8 -0.8 0  -1.6 -0.8 0  -1.4 -0.8 0  -1.2 -0.8 0  -1 -0.8 0  -0.8 -0.8 0  -0.6000000000000001 -0.8 0  -0.3999999999999999 -0.8 0  -0.2 -0.8 0  0 -0.8 0  0.2000000000000002 -0.8 0  0.3999999999999999 -0.8 0  0.6000000000000001 -0.8 0  0.7999999999999998 -0.8 0  1 -0.8 0  1.2 -0.8 0  1.4 -0.8 0  1.6 -0.8 0  1.8 -0.8 0  2 -0.8 0  -2 -0.6000000000000001 0  -1.8 -0.6000000000000001 0  -1.6 -0.6000000000000001 0  -1.4 -0.6000000000000001 0  -1.2 -0.6000000000000001 0  -1 -0.6000000000000001 0  -0.8 -0.6000000000000001 0  -0.6000000000000001 -0.6000000000000001 0  -0.3999999999999999 -0.6000000000000001 0  -0.2 -0.6000000000000001 0  0 -0.6000000000000001 0  0.2000000000000002 -0.6000000000000001 0  0.3999999999999999 -0.6000000000000001 0  0.6000000000000001 -0.6000000000000001 0  0.7999999999999998 -0.6000000000000001 0  1 -0.6000000000000001 0  1.2 -0.6000000000000001 0  1.4 -0.6000000000000001 0  1.6 -0.6000000000000001 0  1.8 -0.6000000000000001 0  2 -0.6000000000000001 0  -2 -0.3999999999999999 0  -1.8 -0.3999999999999999 0  -1.6 -0.3999999999999999 0  -1.4 -0.3999999999999999 0  -1.2 -0.3999999999999999 0  -1 -0.3999999999999999 0  -0.8 -0.3999999999999999 0  -0.6000000000000001 -0.3999999999999999 0  -0.3999999999999999 -0.3999999999999999 0  -0.2 -0.3999999999999999 0  0 -0.3999999999999999 0  0.2000000000000002 -0.3999999999999999 0  0.3999999999999999 -0.3999999999999999 0  0.6000000000000001 -0.3999999999999999 0  0.7999999999999998 -0.3999999999999999 0  1 -0.3999999999999999 0  1.2 -0.3999999999999999 0  1.4 -0.3999999999999999 0  1.6 -0.3999999999999999 0  1.8 -0.3999999999999999 0  2 -0.3999999999999999 0  -2 -0.2 0  -1.8 -0.2 0  -1.6 -0.2 0  -1.4 -0.2 0  -1.2 -0.2 0  -1 -0.2 0  -0.8 -0.2 0  -0.6000000000000001 -0.2 0  -0.3999999999999999 -0.2 0  -0.2 -0.2 0  0 -0.2 0  0.2000000000000002 -0.2 0  0.3999999999999999 -0.2 0  0.6000000000000001 -0.2 0  0.7999999999999998 -0.2 0  1 -0.2 0  1.2 -0.2 0  1.4 -0.2 0  1.6 -0.2 0  1.8 -0.2 0  2 -0.2 0  -2 0 0  -1.8 0 0  -1.6 0 0  -1.4 0 0  -1.2 0 0  -1 0 0  -0.8 0 0  -0.6000000000000001 0 0  -0.3999999999999999 0 0  -0.2 0 0  0 0 0  0.2000000000000002 0 0  0.3999999999999999 0 0  0.6000000000000001 0 0  0.7999999999999998 0 0  1 0 0  1.2 0 0  1.4 0 0  1.6 0 0  1.8 0 0  2 0 0  -2 0.2000000000000002 0  -1.8 0.2000000000000002 0  -1.6 0.2000000000000002 0  -1.4 0.2000000000000002 0  -1.2 0.2000000000000002 0  -1 0.2000000000000002 0  -0.8 0.2000000000000002 0  -0.6000000000000001 0.2000000000000002 0  -0.3999999999999999 0.2000000000000002 0  -0.2 0.2000000000000002 0  0 0.2000000000000002 0  0.2000000000000002 0.2000000000000002 0  0.3999999999999999 0.2000000000000002 0  0.6000000000000001 0.2000000000000002 0  0.7999999999999998 0.2000000000000002 0  1 0.2000000000000002 0  1.2 0.2000000000000002 0  1.4 0.2000000000000002 0  1.6 0.2000000000000002 0  1.8 0.2000000000000002 0  2 0.2000000000000002 0  -2 0.3999999999999999 0  -1.8 0.3999999999999999 0  -1.6 0.3999999999999999 0  -1.4 0.3999999999999999 0  -1.2 0.3999999999999999 0  -1 0.3999999999999999 0  -0.8 0.3999999999999999 0  -0.6000000000000001 0.3999999999999999 0  -0.3999999999999999 0.3999999999999999 0  -0.2 0.3999999999999999 0  0 0.3999999999999999 0  0.2000000000000002 0.3999999999999999 0  0.3999999999999999 0.3999999999999999 0  0.6000000000000001 0.3999999999999999 0  0.7999999999999998 0.3999999999999999 0  1 0.3999999999999999 0  1.2 0.3999999999999999 0  1.4 0.3999999999999999 0  1.6 0.3999999999999999 0  1.8 0.3999999999999999 0  2 0.3999999999999999 0  -2 0.6000000000000001 0  -1.8 0.6000000000000001 0  -1.6 0.6000000000000001 0  -1.4 0.6000000000000001 0  -1.2 0.6000000000000001 0  -1 0.6000000000000001 0  -0.8 0.6000000000000001 0  -0.6000000000000001 0.6000000000000001 0  -0.3999999999999999 0.6000000000000001 0  -0.2 0.6000000000000001 0  0 0.6000000000000001 0  0.2000000000000002 0.6000000000000001 0  0.3999999999999999 0.6000000000000001 0  0.6000000000000001 0.6000000000000001 0  0.7999999999999998 0.6000000000000001 0  1 0.6000000000000001 0  1.2 0.6000000000000001 0  1.4 0.6000000000000001 0  1.6 0.6000000000000001 0  1.8 0.6000000000000001 0  2 0.6000000000000001 0  -2 0.7999999999999998 0  -1.8 0.7999999999999998 0  -1.6 0.7999999999999998 0  -1.4 0.7999999999999998 0  -1.2 0.7999999999999998 0  -1 0.7999999999999998 0  -0.8 0.7999999999999998 0  -0.6000000000000001 0.7999999999999998 0  -0.3999999999999999 0.7999999999999998 0  -0.2 0.7999999999999998 0  0 0.7999999999999998 0  0.2000000000000002 0.7999999999999998 0  0.3999999999999999 0.7999999999999998 0  0.6000000000000001 0.7999999999999998 0  0.7999999999999998 0.7999999999999998 0  1 0.7999999999999998 0  1.2 0.7999999999999998 0  1.4 0.7999999999999998 0  1.6 0.7999999999999998 0  1.8 0.7999999999999998 0  2 0.7999999999999998 0  -2 1 0  -1.8 1 0  -1.6 1 0  -1.4 1 0  -1.2 1 0  -1 1 0  -0.8 1 0  -0.6000000000000001 1 0  -0.3999999999999999 1 0  -0.2 1 0  0 1 0  0.2000000000000002 1 0  0.3999999999999999 1 0  0.6000000000000001 1 0  0.7999999999999998 1 0  1 1 0  1.2 1 0  1.4 1 0  1.6 1 0  1.8 1 0  2 1 0  -2 1.2 0  -1.8 1.2 0  -1.6 1.2 0  -1.4 1.2 0  -1.2 1.2 0  -1 1.2 0  -0.8 1.2 0  -0.6000000000000001 1.2 0  -0.3999999999999999 1.2 0  -0.2 1.2 0  0 1.2 0  0.2000000000000002 1.2 0  0.3999999999999999 1.2 0  0.6000000000000001 1.2 0  0.7999999999999998 1.2 0  1 1.2 0  1.2 1.2 0  1.4 1.2 0  1.6 1.2 0  1.8 1.2 0  2 1.2 0  -2 1.4 0  -1.8 1.4 0  -1.6 1.4 0  -1.4 1.4 0  -1.2 1.4 0  -1 1.4 0  -0.8 1.4 0  -0.6000000000000001 1.4 0  -0.3999999999999999 1.4 0  -0.2 1.4 0  0 1.4 0  0.2000000000000002 1.4 0  0.3999999999999999 1.4 0  0.6000000000000001 1.4 0  0.7999999999999998 1.4 0  1 1.4 0  1.2 1.4 0  1.4 1.4 0  1.6 1.4 0  1.8 1.4 0  2 1.4 0  -2 1.6 0  -1.8 1.6 0  -1.6 1.6 0  -1.4 1.6 0  -1.2 1.6 0  -1 1.6 0  -0.8 1.6 0  -0.6000000000000001 1.6 0  -0.3999999999999999 1.6 0  -0.2 1.6 0  0 1.6 0  0.2000000000000002 1.6 0  0.3999999999999999 1.6 0  0.6000000000000001 1.6 0  0.7999999999999998 1.6 0  1 1.6 0  1.2 1.6 0  1.4 1.6 0  1.6 1.6 0  1.8 1.6 0  2 1.6 0  -2 1.8 0  -1.8 1.8 0  -1.6 1.8 0  -1.4 1.8 0  -1.2 1.8 0  -1 1.8 0  -0.8 1.8 0  -0.6000000000000001 1.8 0  -0.3999999999999999 1.8 0  -0.2 1.8 0  0 1.8 0  0.2000000000000002 1.8 0  0.3999999999999999 1.8 0  0.6000000000000001 1.8 0  0.7999999999999998 1.8 0  1 1.8 0  1.2 1.8 0  1.4 1.8 0  1.6 1.8 0  1.8 1.8 0  2 1.8 0  -2 2 0  -1.8 2 0  -1.6 2 0  -1.4 2 0  -1.2 2 0  -1 2 0  -0.8 2 0  -0.6000000000000001 2 0  -0.3999999999999999 2 0  -0.2 2 0  0 2 0  0.2000000000000002 2 0  0.3999999999999999 2 0  0.6000000000000001 2 0  0.7999999999999998 2 0  1 2 0  1.2 2 0  1.4 2 0  1.6 2 0  1.8 2 0  2 2 0  </DataArray>
</Points>
<Cells>
[...]
<PointData  Scalars="f_8"> 
<DataArray  type="Float64"  Name="f_8"  format="ascii">3.6472544594623242e-02  3.6475951671248341e-02  3.6477375363288607e-02  3.6478117331919031e-02  3.6478562675566727e-02  3.6478852169620303e-02  3.6479049541733852e-02  3.6479189237814409e-02  3.6479292575725977e-02  3.6479374306974399e-02  3.6479445825050777e-02  3.6479517077637087e-02  3.6479598010270682e-02  3.6479700007455311e-02  3.6479837795459345e-02  3.6480032627272702e-02  3.6480318786681093e-02  3.6480759598184705e-02  3.6481494874553967e-02  3.6482907968660966e-02  3.6486302679987523e-02  3.6497228663737544e-02  3.6498016526068391e-02  3.6498778591197746e-02  3.6499321086608576e-02  3.6499691430892760e-02  3.6499945874193092e-02  3.6500123743318853e-02  3.6500251086297862e-02  3.6500345726556846e-02  3.6500420657610867e-02  3.6500486195011866e-02  3.6500551456153718e-02  3.6500625555946221e-02  3.6500718800853198e-02  3.6500844163605481e-02  3.6501019427010263e-02  3.6501270574019189e-02  3.6501636876221794e-02  3.6502174749096825e-02  3.6502932732805381e-02  3.6503719941338039e-02  3.6561211333017062e-02  3.6561299830110520e-02  3.6561587720249082e-02  3.6561874255637679e-02  3.6562105965364453e-02  3.6562280526304954e-02  3.6562408777964038e-02  3.6562502885883301e-02  3.6562573448266959e-02  3.6562629289780629e-02  3.6562677958436401e-02  3.6562726360140838e-02  3.6562781402308835e-02  3.6562850638275614e-02  3.6562942905513027e-02  3.6563068834203828e-02  3.6563240674376878e-02  3.6563469487278344e-02  3.6563753486638442e-02  3.6564040280346946e-02  3.6564130531127705e-02  3.6663377782494753e-02  3.6663218577839260e-02  3.6663233199961225e-02  3.6663314538912688e-02  3.6663406691758049e-02  3.6663487624708523e-02  3.6663551720718952e-02  3.6663600107795791e-02  3.6663636249423440e-02  3.6663664180730179e-02  3.6663687930976005e-02  3.6663711441232670e-02  3.6663738659417439e-02  3.6663773637753451e-02  3.6663820458934182e-02  3.6663882677032432e-02  3.6663961588595660e-02  3.6664051879683759e-02  3.6664132016916040e-02  3.6664146778188481e-02  3.6663989641517646e-02  3.6800823927186463e-02  3.6800542209705994e-02  3.6800394461159798e-02  3.6800327807281152e-02  3.6800302472818965e-02  3.6800294930170868e-02  3.6800293153516558e-02  3.6800291796064102e-02  3.6800288994582445e-02  3.6800284568315099e-02  3.6800279087303885e-02  3.6800273404220887e-02  3.6800268382539102e-02  3.6800264627368441e-02  3.6800262025734928e-02  3.6800258830105563e-02  3.6800249878998333e-02  3.6800223423261245e-02  3.6800156302640281e-02  3.6800009130829127e-02  3.6799729271183287e-02  3.6969609853029439e-02  3.6969251449423778e-02  3.6969000386560723e-02  3.6968829512300343e-02  3.6968712724114963e-02  3.6968630313023471e-02  3.6968569048260250e-02  3.6968520537527569e-02  3.6968479531002227e-02  3.6968442648292577e-02  3.6968407524691743e-02  3.6968372240878095e-02  3.6968334889735513e-02  3.6968293145226205e-02  3.6968243698086857e-02  3.6968181411107068e-02  3.6968098055056457e-02  3.6967980613880159e-02  3.6967809624013949e-02  3.6967559199935371e-02  3.6967202286302132e-02  3.7165035864379754e-02  3.7164625034013243e-02  3.7164305653867878e-02  3.7164062525052714e-02  3.7163878307059944e-02  3.7163737441060676e-02  3.7163627469545726e-02  3.7163538905585436e-02  3.7163464574146550e-02  3.7163398891829895e-02  3.7163337245153978e-02  3.7163275479010244e-02  3.7163209449445553e-02  3.7163134577695538e-02  3.7163045341981893e-02  3.7162934659753281e-02  3.7162793168810111e-02  3.7162608561984230e-02  3.7162365434985391e-02  3.7162046566952149e-02  3.7161636798187618e-02  3.7381817100176649e-02  3.7381371467319659e-02  3.7381007940613921e-02  3.7380717023826650e-02  3.7380486513330112e-02  3.7380303999244024e-02  3.7380158221934343e-02  3.7380039510649221e-02  3.7379939696288077e-02  3.7379851792314241e-02  3.7379769604321940e-02  3.7379687333983884e-02  3.7379599191283891e-02  3.7379499007382765e-02  3.7379379840075576e-02  3.7379233584487741e-02  3.7379050652473544e-02  3.7378819878172737e-02  3.7378528941199383e-02  3.7378165700479610e-02  3.7377720673673780e-02  3.7614238970487421e-02  3.7613773806921019e-02  3.7613385282492452e-02  3.7613066680159818e-02  3.7612808658333517e-02  3.7612600858593838e-02  3.7612433040350002e-02  3.7612295678795107e-02  3.7612180148997074e-02  3.7612078649073399e-02  3.7611983981022543e-02  3.7611889263790825e-02  3.7611787620720982e-02  3.7611671867287561e-02  3.7611534224781196e-02  3.7611366101342782e-02  3.7611158013709678e-02  3.7610899766839720e-02  3.7610581043570832e-02  3.7610192528334911e-02  3.7609727505446749e-02  3.7856310991044466e-02  3.7855840524310257e-02  3.7855443652567898e-02  3.7855114948113944e-02  3.7854846513432648e-02  3.7854629132811630e-02  3.7854453224546739e-02  3.7854309458802714e-02  3.7854189051799561e-02  3.7854083811022038e-02  3.7853986015502779e-02  3.7853888201145464e-02  3.7853782903848478e-02  3.7853662402762125e-02  3.7853518505956106e-02  3.7853342431084160e-02  3.7853124850725832e-02  3.7852856186108681e-02  3.7852527223652434e-02  3.7852130065089092e-02  3.7851659276857894e-02  3.8101921155226863e-02  3.8101458939341248e-02  3.8101068988965661e-02  3.8100746269734052e-02  3.8100483352628334e-02  3.8100271424345404e-02  3.8100101170974503e-02  3.8099963389786044e-02  3.8099849310275914e-02  3.8099750674741507e-02  3.8099659649750789e-02  3.8099568635334806e-02  3.8099470027070995e-02  3.8099355978195026e-02  3.8099218209015677e-02  3.8099047919202933e-02  3.8098835870385067e-02  3.8098572710992443e-02  3.8098249593653669e-02  3.8097859065034517e-02  3.8097396080052526e-02  3.8344988919066438e-02  3.8344547892585359e-02  3.8344179290917359e-02  3.8343877749675764e-02  3.8343635478765799e-02  3.8343443397444672e-02  3.8343292073398996e-02  3.8343172332563465e-02  3.8343075548993771e-02  3.8342993687538483e-02  3.8342919181907575e-02  3.8342844717356300e-02  3.8342762970578724e-02  3.8342666349418325e-02  3.8342546775319994e-02  3.8342395562090327e-02  3.8342203461785483e-02  3.8341960962175951e-02  3.8341658909467176e-02  3.8341289463473219e-02  3.8340847244913115e-02  3.8579613723748518e-02  3.8579206197080829e-02  3.8578872908914687e-02  3.8578607310772235e-02  3.8578400321663681e-02  3.8578241885976063e-02  3.8578122076819168e-02  3.8578031680220372e-02  3.8577962375434240e-02  3.8577906657615617e-02  3.8577857617582784e-02  3.8577808651810756e-02  3.8577753144885936e-02  3.8577684151337402e-02  3.8577594104196783e-02  3.8577474593954969e-02  3.8577316293753210e-02  3.8577109149401108e-02  3.8576842984016833e-02  3.8576508631559481e-02  3.8576099522723721e-02  3.8800215682131073e-02  3.8799853407665945e-02  3.8799569446812870e-02  3.8799354696968949e-02  3.8799197484502196e-02  3.8799085943390432e-02  3.8799009318193516e-02  3.8798958395122346e-02  3.8798925425607089e-02  3.8798903819419778e-02  3.8798887760924987e-02  3.8798871813136390e-02  3.8798850525182761e-02  3.8798818038450027e-02  3.8798767687061378e-02  3.8798691609797743e-02  3.8798580441629933e-02  3.8798423244986696e-02  3.8798207966985084e-02  3.8797922792779493e-02  3.8797558584778361e-02  3.9001665019597141e-02  3.9001359558697192e-02  3.9001139999524391e-02  3.9000992066230471e-02  3.9000899461169476e-02  3.9000847530909225e-02  3.9000824533150416e-02  3.9000821546039899e-02  3.9000831866820469e-02  3.9000850334778972e-02  3.9000872732285106e-02  3.9000895279256473e-02  3.9000914181667949e-02  3.9000925177925763e-02  3.9000923026989390e-02  3.9000900899515668e-02  3.9000849690273620e-02  3.9000757414113338e-02  3.9000609138533267e-02  3.9000388324783405e-02  3.9000080620565238e-02  3.9179396785882191e-02  3.9179160700351504e-02  3.9179023883631536e-02  3.9178961403828309e-02  3.9178949174443638e-02  3.9178968894787468e-02  3.9179008219134399e-02  3.9179059315533643e-02  3.9179117331831596e-02  3.9179179218928752e-02  3.9179242919932473e-02  3.9179306808594862e-02  3.9179369247025177e-02  3.9179428140749588e-02  3.9179480368593908e-02  3.9179520955910610e-02  3.9179541873878378e-02  3.9179530479175766e-02  3.9179468069183654e-02  3.9179330133005327e-02  3.9179091537414640e-02  3.9329506741537811e-02  3.9329357302074000e-02  3.9329329765818807e-02  3.9329376686322477e-02  3.9329461993042956e-02  3.9329564066131771e-02  3.9329671685211925e-02  3.9329779789045595e-02  3.9329886615494074e-02  3.9329992053847310e-02  3.9330096761358839e-02  3.9330201689431021e-02  3.9330307782266892e-02  3.9330415673219092e-02  3.9330525202782872e-02  3.9330634516796463e-02  3.9330738382535681e-02  3.9330825266391693e-02  3.9330873016775493e-02  3.9330844820050517e-02  3.9330692660274835e-02  3.9448821493761284e-02  3.9448793219386248e-02  3.9448920685648807e-02  3.9449109761783667e-02  3.9449310395541212e-02  3.9449502235389185e-02  3.9449679634211754e-02  3.9449843200209958e-02  3.9449995869541683e-02  3.9450141280958195e-02  3.9450283194473482e-02  3.9450425350594814e-02  3.9450571487928181e-02  3.9450725359999536e-02  3.9450890590864790e-02  3.9451070082177020e-02  3.9451264354353796e-02  3.9451467531851761e-02  3.9451658699904545e-02  3.9451786622017100e-02  3.9451755573934051e-02  3.9534924098416364e-02  3.9535116388445701e-02  3.9535486366144748e-02  3.9535860222394269e-02  3.9536189617029677e-02  3.9536470814582149e-02  3.9536712156122110e-02  3.9536923688538693e-02  3.9537114488816562e-02  3.9537292349693103e-02  3.9537464108520229e-02  3.9537636116934914e-02  3.9537814728588909e-02  3.9538006788110328e-02  3.9538220104401084e-02  3.9538463784318377e-02  3.9538747916495670e-02  3.9539080850463530e-02  3.9539458597027975e-02  3.9539831483111340e-02  3.9540021679335187e-02  3.9586065169249576e-02  3.9586843411510905e-02  3.9587615285716762e-02  3.9588209663034460e-02  3.9588661412087334e-02  3.9589015528418064e-02  3.9589304181769439e-02  3.9589549087910382e-02  3.9589765429803157e-02  3.9589964546357902e-02  3.9590155646348484e-02  3.9590346987786212e-02  3.9590546831384819e-02  3.9590764396137255e-02  3.9591011046131344e-02  3.9591302021550645e-02  3.9591659165161650e-02  3.9592114922802402e-02  3.9592714818767215e-02  3.9593494015438144e-02  3.9594274634901949e-02  3.9600656052943037e-02  3.9603571725701323e-02  3.9604890038460377e-02  3.9605652060127783e-02  3.9606168505702026e-02  3.9606553977272543e-02  3.9606860896820244e-02  3.9607117999849624e-02  3.9607343409017969e-02  3.9607549951015564e-02  3.9607747751371179e-02  3.9607945775384248e-02  3.9608152989071194e-02  3.9608379521431890e-02  3.9608638209702035e-02  3.9608947202813966e-02  3.9609335295663378e-02  3.9609855052249399e-02  3.9610621542294451e-02  3.9611947854489626e-02  3.9614890129150475e-02  </DataArray> 
</PointData> 
</Piece>
</UnstructuredGrid>
</VTKFile>