<?xml version="1.0"?>
<VTKFile type="UnstructuredGrid"  version="0.1"  >
<UnstructuredGrid>
<Piece  NumberOfPoints="441" NumberOfCells="800">
<Points>
<DataArray  type="Float64"  NumberOfComponents="3"  format="ascii">-2 -2 0  -1.8 -2 0  -1.6 -2 0  -1.4 -2 0  -1.2 -2 0  -1 -2 0  -0.8 -2 0  -0.6000000000000001 -2 0  -0.3999999999999999 -2 0  -0.2 -2 0  0 -2 0  0.2000000000000002 -2 0  0.3999999999999999 -2 0  0.6000000000000001 -2 0  0.7999999999999998 -2 0  1 -2 0  1.2 -2 0  1.4 -2 0  1.6 -2 0  1.8 -2 0  2 -2 0  -2 -1.8 0  -1.8 -1.8 0  -1.6 -1.8 0  -1.4 -1.8 0  -1.2 -1.8 0  -1 -1.8 0  -0.8 -1.8 0  -0.6000000000000001 -1.8 0  -0.3999999999999999 -1.8 0  -0.2 -1.8 0  0 -1.8 0  0.2000000000000002 -1.8 0  0.3999999999999999 -1.8 0  0.6000000000000001 -1.8 0  0.7999999999999998 -1.8 0  1 -1.8 0  1.2 -1.8 0  1.4 -1.8 0  1.6 -1.8 0  1.8 -1.8 0  2 -1.8 0  -2 -1.6 0  -1.8 -1.6 0  -1.6 -1.6 0  -1.4 -1.6 0  -1.2 -1.6 0  -1 -1.6 0  -0.8 -1.6 0  -0.6000000000000001 -1.6 0  -0.3999999999999999 -1.6 0  -0.2 -1.6 0  0 -1.6 0  0.2000000000000002 -1.6 0  0.3999999999999999 -1.6 0  0.6000000000000001 -1.6 0  0.7999999999999998 -1.6 0  1 -1.6 0  1.2 -1.6 0  1.4 -1.6 0  1.6 -1.6 0  1.8 -1.6 0  2 -1.6 0  -2 -1.4 0  -1.8 -1.4 0  -1.6 -1.4 0  -1.4 -1.4 0  -1.2 -1.4 0  -1 -1.4 0  -0.8 -1.4 0  -0.6000000000000001 -1.4 0  -0.3999999999999999 -1.4 0  -0.2 -1.4 0  0 -1.4 0  0.2000000000000002 -1.4 0  0.3999999999999999 -1.4 0  0.6000000000000001 -1.4 0  0.7999999999999998 -1.4 0  1 -1.4 0  1.2 -1.4 0  1.4 -1.4 0  1.6 -1.4 0  1.8 -1.4 0  2 -1.4 0  -2 -1.2 0  -1.8 -1.2 0  -1.6 -1.2 0  -1.4 -1.2 0  -1.2 -1.2 0  -1 -1.2 0  -0.8 -1.2 0  -0.6000000000000001 -1.2 0  -0.3999999999999999 -1.2 0  -0.2 -1.2 0  0 -1.2 0  0.2000000000000002 -1.2 0  0.3999999999999999 -1.2 0  0.6000000000000001 -1.2 0  0.7999999999999998 -1.2 0  1 -1.2 0  1.2 -1.2 0  1.4 -1.2 0  1.6 -1.2 0  1.8 -1.2 0  2 -1.2 0  -2 -1 0  -1.8 -1 0  -1.6 -1 0  -1.4 -1 0  -1.2 -1 0  -1 -1 0  -0.8 -1 0  -0.6000000000000001 -1 0  -0.3999999999999999 -1 0  -0.2 -1 0  0 -1 0  0.2000000000000002 -1 0  0.3999999999999999 -1 0  0.6000000000000001 -1 0  0.7999999999999998 -1 0  1 -1 0  1.2 -1 0  1.4 -1 0  1.6 -1 0  1.8 -1 0  2 -1 0  -2 -0.8 0  -1.8 -0.8 0  -1.6 -0.8 0  -1.4 -0.8 0  -1.2 -0.8 0  -1 -0.8 0  -0.8 -0.8 0  -0.6000000000000001 -0.8 0  -0.3999999999999999 -0.8 0  -0.2 -0.8 0  0 -0.8 0  0.2000000000000002 -0.8 0  0.3999999999999999 -0.8 0  0.6000000000000001 -0.8 0  0.7999999999999998 -0.8 0  1 -0.8 0  1.2 -0.8 0  1.4 -0.8 0  1.6 -0.8 0  1.8 -0.8 0  2 -0.8 0  -2 -0.6000000000000001 0  -1.8 -0.6000000000000001 0  -1.6 -0.6000000000000001 0  -1.4 -0.6000000000000001 0  -1.2 -0.6000000000000001 0  -1 -0.6000000000000001 0  -0.8 -0.6000000000000001 0  -0.6000000000000001 -0.6000000000000001 0  -0.3999999999999999 -0.6000000000000001 0  -0.2 -0.6000000000000001 0  0 -0.6000000000000001 0  0.2000000000000002 -0.6000000000000001 0  0.3999999999999999 -0.6000000000000001 0  0.6000000000000001 -0.6000000000000001 0  0.7999999999999998 -0.6000000000000001 0  1 -0.6000000000000001 0  1.2 -0.6000000000000001 0  1.4 -0.6000000000000001 0  1.6 -0.6000000000000001 0  1.8 -0.6000000000000001 0  2 -0.6000000000000001 0  -2 -0.3999999999999999 0  -1.8 -0.3999999999999999 0  -1.6 -0.3999999999999999 0  -1.4 -0.3999999999999999 0  -1.2 -0.3999999999999999 0  -1 -0.3999999999999999 0  -0.8 -0.3999999999999999 0  -0.6000000000000001 -0.3999999999999999 0  -0.3999999999999999 -0.3999999999999999 0  -0.2 -0.3999999999999999 0  0 -0.3999999999999999 0  0.2000000000000002 -0.3999999999999999 0  0.3999999999999999 -0.3999999999999999 0  0.6000000000000001 -0.3999999999999999 0  0.7999999999999998 -0.3999999999999999 0  1 -0.3999999999999999 0  1.2 -0.3999999999999999 0  1.4 -0.3999999999999999 0  1.6 -0.3999999999999999 0  1.8 -0.3999999999999999 0  2 -0.3999999999999999 0  -2 -0.2 0  -1.8 -0.2 0  -1.6 -0.2 0  -1.4 -0.2 0  -1.2 -0.2 0  -1 -0.2 0  -0.8 -0.2 0  -0.6000000000000001 -0.2 0  -0.3999999999999999 -0.2 0  -0.2 -0.2 0  0 -0.2 0  0.2000000000000002 -0.2 0  0.3999999999999999 -0.2 0  0.6000000000000001 -0.2 0  0.7999999999999998 -0.2 0  1 -0.2 0  1.2 -0.2 0  1.4 -0.2 0  1.6 -0.2 0  1.8 -0.2 0  2 -0.2 0  -2 0 0  -1.8 0 0  -1.6 0 0  -1.4 0 0  -1.2 0 0  -1 0 0  -0.8 0 0  -0.6000000000000001 0 0  -0.3999999999999999 0 0  -0.2 0 0  0 0 0  0.2000000000000002 0 0  0.3999999999999999 0 0  0.6000000000000001 0 0  0.7999999999999998 0 0  1 0 0  1.2 0 0  1.4 0 0  1.6 0 0  1.8 0 0  2 0 0  -2 0.2000000000000002 0  -1.8 0.2000000000000002 0  -1.6 0.2000000000000002 0  -1.4 0.2000000000000002 0  -1.2 0.2000000000000002 0  -1 0.2000000000000002 0  -0.8 0.2000000000000002 0  -0.6000000000000001 0.2000000000000002 0  -0.3999999999999999 0.2000000000000002 0  -0.2 0.2000000000000002 0  0 0.2000000000000002 0  0.2000000000000002 0.2000000000000002 0  0.3999999999999999 0.2000000000000002 0  0.6000000000000001 0.2000000000000002 0  0.7999999999999998 0.2000000000000002 0  1 0.2000000000000002 0  1.2 0.2000000000000002 0  1.4 0.2000000000000002 0  1.6 0.2000000000000002 0  1.8 0.2000000000000002 0  2 0.2000000000000002 0  -2 0.3999999999999999 0  -1.8 0.3999999999999999 0  -1.6 0.3999999999999999 0  -1.4 0.3999999999999999 0  -1.2 0.3999999999999999 0  -1 0.3999999999999999 0  -0.8 0.3999999999999999 0  -0.6000000000000001 0.3999999999999999 0  -0.3999999999999999 0.3999999999999999 0  -0.2 0.3999999999999999 0  0 0.3999999999999999 0  0.2000000000000002 0.3999999999999999 0  0.3999999999999999 0.3999999999999999 0  0.6000000000000001 0.3999999999999999 0  0.7999999999999998 0.3999999999999999 0  1 0.3999999999999999 0  1.2 0.3999999999999999 0  1.4 0.3999999999999999 0  1.6 0.3999999999999999 0  1.8 0.3999999999999999 0  2 0.3999999999999999 0  -2 0.6000000000000001 0  -1.8 0.6000000000000001 0  -1.6 0.6000000000000001 0  -1.4 0.6000000000000001 0  -1.2 0.6000000000000001 0  -1 0.6000000000000001 0  -0.8 0.6000000000000001 0  -0.6000000000000001 0.6000000000000001 0  -0.3999999999999999 0.6000000000000001 0  -0.2 0.6000000000000001 0  0 0.6000000000000001 0  0.2000000000000002 0.6000000000000001 0  0.3999999999999999 0.6000000000000001 0  0.6000000000000001 0.6000000000000001 0  0.7999999999999998 0.6000000000000001 0  1 0.6000000000000001 0  1.2 0.6000000000000001 0  1.4 0.6000000000000001 0  1.6 0.6000000000000001 0  1.8 0.6000000000000001 0  2 0.6000000000000001 0  -2 0.7999999999999998 0  -1.8 0.7999999999999998 0  -1.6 0.7999999999999998 0  -1.4 0.7999999999999998 0  -1.2 0.7999999999999998 0  -1 0.7999999999999998 0  -0.8 0.7999999999999998 0  -0.6000000000000001 0.7999999999999998 0  -0.3999999999999999 0.7999999999999998 0  -0.2 0.7999999999999998 0  0 0.7999999999999998 0  0.2000000000000002 0.7999999999999998 0  0.3999999999999999 0.7999999999999998 0  0.6000000000000001 0.7999999999999998 0  0.7999999999999998 0.7999999999999998 0  1 0.7999999999999998 0  1.2 0.7999999999999998 0  1.4 0.7999999999999998 0  1.6 0.7999999999999998 0  1.8 0.7999999999999998 0  2 0.7999999999999998 0  -2 1 0  -1.8 1 0  -1.6 1 0  -1.4 1 0  -1.2 1 0  -1 1 0  -0.8 1 0  -0.6000000000000001 1 0  -0.3999999999999999 1 0  -0.2 1 0  0 1 0  0.2000000000000002 1 0  0.3999999999999999 1 0  0.6000000000000001 1 0  0.7999999999999998 1 0  1 1 0  1.2 1 0  1.4 1 0  1.6 1 0  1.8 1 0  2 1 0  -2 1.2 0  -1.8 1.2 0  -1.6 1.2 0  -1.4 1.2 0  -1.2 1.2 0  -1 1.2 0  -0.8 1.2 0  -0.6000000000000001 1.2 0  -0.3999999999999999 1.2 0  -0.2 1.2 0  0 1.2 0  0.2000000000000002 1.2 0  0.3999999999999999 1.2 0  0.6000000000000001 1.2 0  0.7999999999999998 1.2 0  1 1.2 0  1.2 1.2 0  1.4 1.2 0  1.6 1.2 0  1.8 1.2 0  2 1.2 0  -2 1.4 0  -1.8 1.4 0  -1.6 1.4 0  -1.4 1.4 0  -1.2 1.4 0  -1 1.4 0  -0.8 1.4 0  -0.6000000000000001 1.4 0  -0.3999999999999999 1.4 0  -0.2 1.4 0  0 1.4 0  0.2000000000000002 1.4 0  0.3999999999999999 1.4 0  0.6000000000000001 1.4 0  0.7999999999999998 1.4 0  1 1.4 0  1.2 1.4 0  1.4 1.4 0  1.6 1.4 0  1.8 1.4 0  2 1.4 0  -2 1.6 0  -1.8 1.6 0  -1.6 1.6 0  -1.4 1.6 0  -1.2 1.6 0  -1 1.6 0  -0.8 1.6 0  -0.6000000000000001 1.6 0  -0.3999999999999999 1.6 0  -0.2 1.6 0  0 1.6 0  0.2000000000000002 1.6 0  0.3999999999999999 1.6 0  0.6000000000000001 1.6 0  0.7999999999999998 1.6 0  1 1.6 0  1.2 1.6 0  1.4 1.6 0  1.6 1.6 0  1.8 1.6 0  2 1.6 0  -2 1.8 0  -1.8 1.8 0  -1.6 1.8 0  -1.4 1.8 0  -1.2 1.8 0  -1 1.8 0  -0.8 1.8 0  -0.6000000000000001 1.8 0  -0.3999999999999999 1.8 0  -0.2 1.8 0  0 1.8 0  0.2000000000000002 1.8 0  0.3999999999999999 1.8 0  0.6000000000000001 1.8 0  0.7999999999999998 1.8 0  1 1.8 0  1.2 1.8 0  1.4 1.8 0  1.6 1.8 0  1.8 1.8 0  2 1.8 0  -2 2 0  -1.8 2 0  -1.6 2 0  -1.4 2 0  -1.2 2 0  -1 2 0  -0.8 2 0  -0.6000000000000001 2 0  -0.3999999999999999 2 0  -0.2 2 0  0 2 0  0.2000000000000002 2 0  0.3999999999999999 2 0  0.6000000000000001 2 0  0.7999999999999998 2 0  1 2 0  1.2 2 0  1.4 2 0  1.6 2 0  1.8 2 0  2 2 0  </DataArray>
</Points>
<Cells>
[...]
<PointData  Scalars="f_8"> 
<DataArray  type="Float64"  Name="f_8"  format="ascii">6.3365098118543739e-01  6.2702684610911985e-01  6.1070760687387804e-01  5.8539374966751512e-01  5.5225313397938669e-01  5.1279935573504010e-01  4.6875806469020259e-01  4.2193195016927337e-01  3.7407607035319063e-01  3.2679376051239067e-01  2.8146031583978709e-01  2.3917784356391752e-01  2.0076089064941796e-01  1.6674928326465407e-01  1.3744243390631000e-01  1.1294830714992818e-01  9.3240203976564712e-02  7.8215313947812240e-02  6.7750339929871686e-02  6.1751218784425063e-02  6.0195977909145527e-02  6.3086724387580440e-01  6.2560432270991850e-01  6.1020029798484887e-01  5.8550659392898574e-01  5.5277510374904959e-01  5.1356905185786550e-01  4.6964743497699168e-01  4.2283951901373323e-01  3.7492449961492430e-01  3.2752870443774956e-01  2.8204892684120936e-01  2.3960620124142654e-01  2.0103019477057610e-01  1.6687093921897531e-01  1.3743220486998411e-01  1.1281953136960685e-01  9.2995672318113565e-02  7.7836715413064708e-02  6.7183060706916153e-02  6.0880407259921464e-02  5.8806557324526720e-02  6.3033078406532428e-01  6.2517007537043290e-01  6.0995688554424921e-01  5.8546856885617415e-01  5.5291725671559622e-01  5.1384667799292405e-01  4.7000899113376193e-01  4.2323481706335714e-01  3.7530991877735292e-01  3.2787013572875501e-01  2.8232286434479131e-01  2.3979932372475546e-01  2.0113779708658405e-01  1.6689460267752318e-01  1.3737711242672965e-01  1.1269184536881222e-01  9.2800438252538642e-02  7.7576906680302413e-02  6.6860757577035690e-02  6.0501915691871640e-02  5.8394890074371437e-02  6.3021004151542592e-01  6.2506604960626111e-01  6.0989644209598604e-01  5.8546516258597825e-01  5.5297139948742879e-01  5.1394904444250300e-01  4.7014426354562944e-01  4.2338530780135725e-01  3.7545849790702313e-01  3.2800227018619821e-01  2.8242775048577895e-01  2.3987021193459179e-01  2.0117168252306278e-01  1.6689149769112999e-01  1.3733912977410601e-01  1.1262231386299343e-01  9.2703250113548435e-02  7.7456259085342011e-02  6.6721385567581518e-02  6.0349774342417728e-02  5.8237923367980240e-02  6.3018876073219421e-01  6.2504858501335980e-01  6.0988948030955159e-01  5.8547280806573920e-01  5.5299458036002758e-01  5.1398577293639147e-01  4.7019042669148475e-01  4.2343566724196829e-01  3.7550765046470219e-01  3.2804541141903254e-01  2.8246116775710772e-01  2.3989150108038707e-01  2.0117972960570679e-01  1.6688629495030896e-01  1.3732150515071742e-01  1.1259364966181612e-01  9.2665251614897373e-02  7.7410810376321026e-02  6.6670498482845703e-02  6.0295598125168548e-02  5.8182743021470668e-02  6.3018769475362368e-01  6.2504838719695166e-01  6.0989163540885916e-01  5.8547826057111096e-01  5.5300355985424920e-01  5.1399780244941540e-01  4.7020447547474803e-01  4.2345038318217787e-01  3.7552160705552451e-01  3.2805731925578990e-01  2.8247002144874567e-01  2.3989665269735080e-01  2.0118089561374639e-01  1.6688351358217268e-01  1.3731506539296873e-01  1.1258401237125849e-01  9.2652978977115372e-02  7.7396513311506349e-02  6.6654804058118633e-02  6.0279132126358222e-02  5.8166118680759722e-02  6.3018875235585792e-01  6.2504961371969503e-01  6.0989331272899783e-01  5.8548055972857482e-01  5.5300650569686716e-01  5.1400127348403390e-01  4.7020823400024897e-01  4.2345412397993576e-01  3.7552501111665049e-01  3.2806010111178574e-01  2.8247196282169523e-01  2.3989761973590459e-01  2.0118084080162540e-01  1.6688246593680867e-01  1.3731311370434515e-01  1.1258128614821170e-01  9.2649630806855968e-02  7.7392704891258948e-02  6.6650696621148892e-02  6.0274880727681238e-02  5.8161869138146596e-02  6.3018929477580765e-01  6.2505017980675670e-01  6.0989394643833650e-01  5.8548128415735357e-01  5.5300731744497200e-01  5.1400214322537296e-01  4.7020911242978258e-01  4.2345495107758530e-01  3.7552572627021136e-01  3.2806065196231637e-01  2.8247231144360996e-01  2.3989774562704758e-01  2.0118074090121402e-01  1.6688215238485682e-01  1.3731261027437497e-01  1.1258062426157456e-01  9.2648845843945088e-02  7.7391833236751487e-02  6.6649773597269660e-02  6.0273939345588279e-02  5.8160939471569570e-02  6.3018946361272865e-01  6.2505034949203631e-01  6.0989412226768225e-01  5.8548146796244305e-01  5.5300750688508804e-01  5.1400233206966872e-01  4.7020929166336284e-01  4.2345511048490142e-01  3.7552585609601308e-01  3.2806074430976057e-01  2.8247236119601665e-01  2.3989775082363415e-01  2.0118070261897680e-01  1.6688207425755758e-01  1.3731249781084026e-01  1.1258048411638638e-01  9.2648685157457944e-02  7.7391659113206779e-02  6.6649592742935679e-02  6.0273757852908581e-02  5.8160762714836445e-02  6.3018950419751441e-01  6.2505038929615842e-01  6.0989416169858868e-01  5.8548150693516776e-01  5.5300754475581892e-01  5.1400236771046959e-01  4.7020932364623713e-01  4.2345513732123891e-01  3.7552587647330599e-01  3.2806075727868916e-01  2.8247236628089067e-01  2.3989774805045677e-01  2.0118069247260614e-01  1.6688205758981470e-01  1.3731247572462385e-01  1.1258045784827987e-01  9.2648655975141936e-02  7.7391628236519197e-02  6.6649561290566359e-02  6.0273726811709435e-02  5.8160732926043068e-02  6.3018951159052239e-01  6.2505039635417836e-01  6.0989416845655564e-01  5.8548151337090093e-01  5.5300755078070285e-01  5.1400237317860176e-01  4.7020932837760737e-01  4.2345514113188887e-01  3.7552587920505970e-01  3.2806075882255759e-01  2.8247236659079539e-01  2.3989774714659060e-01  2.0118069043588932e-01  1.6688205455018462e-01  1.3731247184628748e-01  1.1258045331473986e-01  9.2648650976050809e-02  7.7391622957500697e-02  6.6649555906291735e-02  6.0273721481868756e-02  5.8160727793458544e-02  6.3018950827420783e-01  6.2505039294879372e-01  6.0989416526939899e-01  5.8548151068846077e-01  5.5300754882510605e-01  5.1400237207511323e-01  4.7020932813850747e-01  4.2345514165826331e-01  3.7552588030441175e-01  3.2806076023754094e-01  2.8247236803316461e-01  2.3989774833064315e-01  2.0118069110690118e-01  1.6688205450514829e-01  1.3731247094616800e-01  1.1258045148908352e-01  9.2648648221861571e-02  7.7391619334730488e-02  6.6649551532094037e-02  6.0273716525058842e-02  5.8160722469597900e-02  6.3018948367742078e-01  6.2505036888489784e-01  6.0989414381569562e-01  5.8548149368876445e-01  5.5300753760017729e-01  5.1400236722586423e-01  4.7020932947408495e-01  4.2345514825107422e-01  3.7552589064837161e-01  3.2806077246978421e-01  2.8247238017479420e-01  2.3989775850729578e-01  2.0118069772161501e-01  1.6688205635036019e-01  1.3731246725522861e-01  1.1258044193801844e-01  9.2648632897949418e-02  7.7391598689586658e-02  6.6649526333961401e-02  6.0273687819118599e-02  5.8160691547846796e-02  6.3018937005073139e-01  6.2505026082822535e-01  6.0989405382013562e-01  5.8548143207284342e-01  5.5300751079595789e-01  5.1400237683024630e-01  4.7020937218466718e-01  4.2345521659550456e-01  3.7552597426736339e-01  3.2806085964929438e-01  2.8247245933651610e-01  2.3989781943586869e-01  2.0118073240325765e-01  1.6688205939497380e-01  1.3731243595339976e-01  1.1258037605517877e-01  9.2648534327233509e-02  7.7391471075609841e-02  6.6649374748858306e-02  6.0273518529232607e-02  5.8160511864749853e-02  6.3018891014879497e-01  6.2504983777192746e-01  6.0989373640637057e-01  5.8548127308593334e-01  5.5300753800729963e-01  5.1400258935162235e-01  4.7020974226108703e-01  4.2345569568164482e-01  3.7552650155561745e-01  3.2806137111607064e-01  2.8247289570598538e-01  2.3989813203126509e-01  2.0118088648151647e-01  1.6688203510439722e-01  1.3731222743648644e-01  1.1257998941108630e-01  9.2647985160231178e-02  7.7390782222231613e-02  6.6648574547710338e-02  6.0272639733278191e-02  5.8159591059073833e-02  6.3018717824082904e-01  6.2504830209929119e-01  6.0989274333978161e-01  5.8548106968406677e-01  5.5300823048549941e-01  5.1400413394481348e-01  4.7021196504610641e-01  4.2345833199621485e-01  3.7552924368308710e-01  3.2806391402826018e-01  2.8247497358798918e-01  2.3989954185658602e-01  2.0118149818088851e-01  1.6688179035411002e-01  1.3731113056962269e-01  1.1257809443883895e-01  9.2645382526603856e-02  7.7387587920556652e-02  6.6644922859839001e-02  6.0268679417000447e-02  5.8155483669292650e-02  6.3018048264224436e-01  6.2504252606453825e-01  6.0988947539931293e-01  5.8548136096432168e-01  5.5301243203338835e-01  5.1401190570012045e-01  4.7022241556629268e-01  4.2347022964647751e-01  3.7554124218006862e-01  3.2807474882457510e-01  2.8248360331283329e-01  2.3990522601177777e-01  2.0118381580192379e-01  1.6688061327458792e-01  1.3730656925040166e-01  1.1257043462223243e-01  9.2635028063735400e-02  7.7375019815383417e-02  6.6630677688487280e-02  6.0253342884335731e-02  5.8139689013985585e-02  6.3015238970607634e-01  6.2501845530791422e-01  6.0987608231785662e-01  5.8548262127284223e-01  5.5302920419309987e-01  5.1404227214462805e-01  4.7026247619652056e-01  4.2351505224513292e-01  3.7558575186369830e-01  3.2811442341740799e-01  2.8251491653740168e-01  2.3992583884831756e-01  2.0119255657209592e-01  1.6687731002715600e-01  1.3729180643328748e-01  1.1254530287541661e-01  9.2600923845806857e-02  7.7333531746699019e-02  6.6583568538405413e-02  6.0202598908676186e-02  5.8087564067849456e-02  6.3003108822650289e-01  6.2491506819739950e-01  6.0981637014818368e-01  5.8547877692730477e-01  5.5308092152029487e-01  5.1414000408201133e-01  4.7039121512657750e-01  4.2365779322795144e-01  3.7572623486558671e-01  3.2823900139540041e-01  2.8261355470059035e-01  2.3999235458833787e-01  2.0122427440250501e-01  1.6687433893254591e-01  1.3725615515266365e-01  1.1248003951272921e-01  9.2509566439403945e-02  7.7219826799789892e-02  6.6451761194155870e-02  6.0058177160706244e-02  5.7938165118990095e-02  6.2950900574419977e-01  6.2449969259391613e-01  6.0958959008817726e-01  5.8545252661496150e-01  5.5322942422675814e-01  5.1441898553220022e-01  4.7075003271879745e-01  4.2404735904052560e-01  3.7610407612787877e-01  3.2857210657201796e-01  2.8287939606469698e-01  2.4017842633671072e-01  2.0132650683745282e-01  1.6689477665012992e-01  1.3720029803978129e-01  1.1235425075844535e-01  9.2318991645503889e-02  7.6967414721368366e-02  6.6139350040781378e-02  5.9691417581956771e-02  5.7538662159773449e-02  6.2676177596163130e-01  6.2308588300081480e-01  6.0907820196014606e-01  5.8555792291602871e-01  5.5374601026692849e-01  5.1518785220040642e-01  4.7164350227414520e-01  4.2496294139330004e-01  3.7696267562467523e-01  3.2931742059432006e-01  2.8347683483952357e-01  2.4061281181654723e-01  2.0159839693271125e-01  1.6701556803932593e-01  1.3718631949007995e-01  1.1221988740763007e-01  9.2068473042048973e-02  7.6584200533671945e-02  6.5570909320946197e-02  5.8825306556635537e-02  5.6162556598529992e-02  </DataArray> 
</PointData> 
</Piece>
</UnstructuredGrid>
</VTKFile>