<?xml version="1.0"?>
<VTKFile type="UnstructuredGrid"  version="0.1"  >
<UnstructuredGrid>
<Piece  NumberOfPoints="441" NumberOfCells="800">
<Points>
<DataArray  type="Float64"  NumberOfComponents="3"  format="ascii">-2 -2 0  -1.8 -2 0  -1.6 -2 0  -1.4 -2 0  -1.2 -2 0  -1 -2 0  -0.8 -2 0  -0.6000000000000001 -2 0  -0.3999999999999999 -2 0  -0.2 -2 0  0 -2 0  0.2000000000000002 -2 0  0.3999999999999999 -2 0  0.6000000000000001 -2 0  0.7999999999999998 -2 0  1 -2 0  1.2 -2 0  1.4 -2 0  1.6 -2 0  1.8 -2 0  2 -2 0  -2 -1.8 0  -1.8 -1.8 0  -1.6 -1.8 0  -1.4 -1.8 0  -1.2 -1.8 0  -1 -1.8 0  -0.8 -1.8 0  -0.6000000000000001 -1.8 0  -0.3999999999999999 -1.8 0  -0.2 -1.8 0  0 -1.8 0  0.2000000000000002 -1.8 0  0.3999999999999999 -1.8 0  0.6000000000000001 -1.8 0  0.7999999999999998 -1.8 0  1 -1.8 0  1.2 -1.8 0  1.4 -1.8 0  1.6 -1.8 0  1.8 -1.8 0  2 -1.8 0  -2 -1.6 0  -1.8 -1.6 0  -1.6 -1.6 0  -1.4 -1.6 0  -1.2 -1.6 0  -1 -1.6 0  -0.8 -1.6 0  -0.6000000000000001 -1.6 0  -0.3999999999999999 -1.6 0  -0.2 -1.6 0  0 -1.6 0  0.2000000000000002 -1.6 0  0.3999999999999999 -1.6 0  0.6000000000000001 -1.6 0  0.7999999999999998 -1.6 0  1 -1.6 0  1.2 -1.6 0  1.4 -1.6 0  1.6 -1.6 0  1.8 -1.6 0  2 -1.6 0  -2 -1.4 0  -1.8 -1.4 0  -1.6 -1.4 0  -1.4 -1.4 0  -1.2 -1.4 0  -1 -1.4 0  -0.8 -1.4 0  -0.6000000000000001 -1.4 0  -0.3999999999999999 -1.4 0  -0.2 -1.4 0  0 -1.4 0  0.2000000000000002 -1.4 0  0.3999999999999999 -1.4 0  0.6000000000000001 -1.4 0  0.7999999999999998 -1.4 0  1 -1.4 0  1.2 -1.4 0  1.4 -1.4 0  1.6 -1.4 0  1.8 -1.4 0  2 -1.4 0  -2 -1.2 0  -1.8 -1.2 0  -1.6 -1.2 0  -1.4 -1.2 0  -1.2 -1.2 0  -1 -1.2 0  -0.8 -1.2 0  -0.6000000000000001 -1.2 0  -0.3999999999999999 -1.2 0  -0.2 -1.2 0  0 -1.2 0  0.2000000000000002 -1.2 0  0.3999999999999999 -1.2 0  0.6000000000000001 -1.2 0  0.7999999999999998 -1.2 0  1 -1.2 0  1.2 -1.2 0  1.4 -1.2 0  1.6 -1.2 0  1.8 -1.2 0  2 -1.2 0  -2 -1 0  -1.8 -1 0  -1.6 -1 0  -1.4 -1 0  -1.2 -1 0  -1 -1 0  -0.8 -1 0  -0.6000000000000001 -1 0  -0.3999999999999999 -1 0  -0.2 -1 0  0 -1 0  0.2000000000000002 -1 0  0.3999999999999999 -1 0  0.6000000000000001 -1 0  0.7999999999999998 -1 0  1 -1 0  1.2 -1 0  1.4 -1 0  1.6 -1 0  1.8 -1 0  2 -1 0  -2 -0.8 0  -1.8 -0.8 0  -1.6 -0.8 0  -1.4 -0.8 0  -1.2 -0.8 0  -1 -0.8 0  -0.8 -0.8 0  -0.6000000000000001 -0.8 0  -0.3999999999999999 -0.8 0  -0.2 -0.8 0  0 -0.8 0  0.2000000000000002 -0.8 0  0.3999999999999999 -0.8 0  0.6000000000000001 -0.8 0  0.7999999999999998 -0.8 0  1 -0.8 0  1.2 -0.8 0  1.4 -0.8 0  1.6 -0.8 0  1.8 -0.8 0  2 -0.8 0  -2 -0.6000000000000001 0  -1.8 -0.6000000000000001 0  -1.6 -0.6000000000000001 0  -1.4 -0.6000000000000001 0  -1.2 -0.6000000000000001 0  -1 -0.6000000000000001 0  -0.8 -0.6000000000000001 0  -0.6000000000000001 -0.6000000000000001 0  -0.3999999999999999 -0.6000000000000001 0  -0.2 -0.6000000000000001 0  0 -0.6000000000000001 0  0.2000000000000002 -0.6000000000000001 0  0.3999999999999999 -0.6000000000000001 0  0.6000000000000001 -0.6000000000000001 0  0.7999999999999998 -0.6000000000000001 0  1 -0.6000000000000001 0  1.2 -0.6000000000000001 0  1.4 -0.6000000000000001 0  1.6 -0.6000000000000001 0  1.8 -0.6000000000000001 0  2 -0.6000000000000001 0  -2 -0.3999999999999999 0  -1.8 -0.3999999999999999 0  -1.6 -0.3999999999999999 0  -1.4 -0.3999999999999999 0  -1.2 -0.3999999999999999 0  -1 -0.3999999999999999 0  -0.8 -0.3999999999999999 0  -0.6000000000000001 -0.3999999999999999 0  -0.3999999999999999 -0.3999999999999999 0  -0.2 -0.3999999999999999 0  0 -0.3999999999999999 0  0.2000000000000002 -0.3999999999999999 0  0.3999999999999999 -0.3999999999999999 0  0.6000000000000001 -0.3999999999999999 0  0.7999999999999998 -0.3999999999999999 0  1 -0.3999999999999999 0  1.2 -0.3999999999999999 0  1.4 -0.3999999999999999 0  1.6 -0.3999999999999999 0  1.8 -0.3999999999999999 0  2 -0.3999999999999999 0  -2 -0.2 0  -1.8 -0.2 0  -1.6 -0.2 0  -1.4 -0.2 0  -1.2 -0.2 0  -1 -0.2 0  -0.8 -0.2 0  -0.6000000000000001 -0.2 0  -0.3999999999999999 -0.2 0  -0.2 -0.2 0  0 -0.2 0  0.2000000000000002 -0.2 0  0.3999999999999999 -0.2 0  0.6000000000000001 -0.2 0  0.7999999999999998 -0.2 0  1 -0.2 0  1.2 -0.2 0  1.4 -0.2 0  1.6 -0.2 0  1.8 -0.2 0  2 -0.2 0  -2 0 0  -1.8 0 0  -1.6 0 0  -1.4 0 0  -1.2 0 0  -1 0 0  -0.8 0 0  -0.6000000000000001 0 0  -0.3999999999999999 0 0  -0.2 0 0  0 0 0  0.2000000000000002 0 0  0.3999999999999999 0 0  0.6000000000000001 0 0  0.7999999999999998 0 0  1 0 0  1.2 0 0  1.4 0 0  1.6 0 0  1.8 0 0  2 0 0  -2 0.2000000000000002 0  -1.8 0.2000000000000002 0  -1.6 0.2000000000000002 0  -1.4 0.2000000000000002 0  -1.2 0.2000000000000002 0  -1 0.2000000000000002 0  -0.8 0.2000000000000002 0  -0.6000000000000001 0.2000000000000002 0  -0.3999999999999999 0.2000000000000002 0  -0.2 0.2000000000000002 0  0 0.2000000000000002 0  0.2000000000000002 0.2000000000000002 0  0.3999999999999999 0.2000000000000002 0  0.6000000000000001 0.2000000000000002 0  0.7999999999999998 0.2000000000000002 0  1 0.2000000000000002 0  1.2 0.2000000000000002 0  1.4 0.2000000000000002 0  1.6 0.2000000000000002 0  1.8 0.2000000000000002 0  2 0.2000000000000002 0  -2 0.3999999999999999 0  -1.8 0.3999999999999999 0  -1.6 0.3999999999999999 0  -1.4 0.3999999999999999 0  -1.2 0.3999999999999999 0  -1 0.3999999999999999 0  -0.8 0.3999999999999999 0  -0.6000000000000001 0.3999999999999999 0  -0.3999999999999999 0.3999999999999999 0  -0.2 0.3999999999999999 0  0 0.3999999999999999 0  0.2000000000000002 0.3999999999999999 0  0.3999999999999999 0.3999999999999999 0  0.6000000000000001 0.3999999999999999 0  0.7999999999999998 0.3999999999999999 0  1 0.3999999999999999 0  1.2 0.3999999999999999 0  1.4 0.3999999999999999 0  1.6 0.3999999999999999 0  1.8 0.3999999999999999 0  2 0.3999999999999999 0  -2 0.6000000000000001 0  -1.8 0.6000000000000001 0  -1.6 0.6000000000000001 0  -1.4 0.6000000000000001 0  -1.2 0.6000000000000001 0  -1 0.6000000000000001 0  -0.8 0.6000000000000001 0  -0.6000000000000001 0.6000000000000001 0  -0.3999999999999999 0.6000000000000001 0  -0.2 0.6000000000000001 0  0 0.6000000000000001 0  0.2000000000000002 0.6000000000000001 0  0.3999999999999999 0.6000000000000001 0  0.6000000000000001 0.6000000000000001 0  0.7999999999999998 0.6000000000000001 0  1 0.6000000000000001 0  1.2 0.6000000000000001 0  1.4 0.6000000000000001 0  1.6 0.6000000000000001 0  1.8 0.6000000000000001 0  2 0.6000000000000001 0  -2 0.7999999999999998 0  -1.8 0.7999999999999998 0  -1.6 0.7999999999999998 0  -1.4 0.7999999999999998 0  -1.2 0.7999999999999998 0  -1 0.7999999999999998 0  -0.8 0.7999999999999998 0  -0.6000000000000001 0.7999999999999998 0  -0.3999999999999999 0.7999999999999998 0  -0.2 0.7999999999999998 0  0 0.7999999999999998 0  0.2000000000000002 0.7999999999999998 0  0.3999999999999999 0.7999999999999998 0  0.6000000000000001 0.7999999999999998 0  0.7999999999999998 0.7999999999999998 0  1 0.7999999999999998 0  1.2 0.7999999999999998 0  1.4 0.7999999999999998 0  1.6 0.7999999999999998 0  1.8 0.7999999999999998 0  2 0.7999999999999998 0  -2 1 0  -1.8 1 0  -1.6 1 0  -1.4 1 0  -1.2 1 0  -1 1 0  -0.8 1 0  -0.6000000000000001 1 0  -0.3999999999999999 1 0  -0.2 1 0  0 1 0  0.2000000000000002 1 0  0.3999999999999999 1 0  0.6000000000000001 1 0  0.7999999999999998 1 0  1 1 0  1.2 1 0  1.4 1 0  1.6 1 0  1.8 1 0  2 1 0  -2 1.2 0  -1.8 1.2 0  -1.6 1.2 0  -1.4 1.2 0  -1.2 1.2 0  -1 1.2 0  -0.8 1.2 0  -0.6000000000000001 1.2 0  -0.3999999999999999 1.2 0  -0.2 1.2 0  0 1.2 0  0.2000000000000002 1.2 0  0.3999999999999999 1.2 0  0.6000000000000001 1.2 0  0.7999999999999998 1.2 0  1 1.2 0  1.2 1.2 0  1.4 1.2 0  1.6 1.2 0  1.8 1.2 0  2 1.2 0  -2 1.4 0  -1.8 1.4 0  -1.6 1.4 0  -1.4 1.4 0  -1.2 1.4 0  -1 1.4 0  -0.8 1.4 0  -0.6000000000000001 1.4 0  -0.3999999999999999 1.4 0  -0.2 1.4 0  0 1.4 0  0.2000000000000002 1.4 0  0.3999999999999999 1.4 0  0.6000000000000001 1.4 0  0.7999999999999998 1.4 0  1 1.4 0  1.2 1.4 0  1.4 1.4 0  1.6 1.4 0  1.8 1.4 0  2 1.4 0  -2 1.6 0  -1.8 1.6 0  -1.6 1.6 0  -1.4 1.6 0  -1.2 1.6 0  -1 1.6 0  -0.8 1.6 0  -0.6000000000000001 1.6 0  -0.3999999999999999 1.6 0  -0.2 1.6 0  0 1.6 0  0.2000000000000002 1.6 0  0.3999999999999999 1.6 0  0.6000000000000001 1.6 0  0.7999999999999998 1.6 0  1 1.6 0  1.2 1.6 0  1.4 1.6 0  1.6 1.6 0  1.8 1.6 0  2 1.6 0  -2 1.8 0  -1.8 1.8 0  -1.6 1.8 0  -1.4 1.8 0  -1.2 1.8 0  -1 1.8 0  -0.8 1.8 0  -0.6000000000000001 1.8 0  -0.3999999999999999 1.8 0  -0.2 1.8 0  0 1.8 0  0.2000000000000002 1.8 0  0.3999999999999999 1.8 0  0.6000000000000001 1.8 0  0.7999999999999998 1.8 0  1 1.8 0  1.2 1.8 0  1.4 1.8 0  1.6 1.8 0  1.8 1.8 0  2 1.8 0  -2 2 0  -1.8 2 0  -1.6 2 0  -1.4 2 0  -1.2 2 0  -1 2 0  -0.8 2 0  -0.6000000000000001 2 0  -0.3999999999999999 2 0  -0.2 2 0  0 2 0  0.2000000000000002 2 0  0.3999999999999999 2 0  0.6000000000000001 2 0  0.7999999999999998 2 0  1 2 0  1.2 2 0  1.4 2 0  1.6 2 0  1.8 2 0  2 2 0  </DataArray>
</Points>
<Cells>
[...]
<PointData  Scalars="f_8"> 
<DataArray  type="Float64"  Name="f_8"  format="ascii">1.7069703952212986e-01  1.5872962234882604e-01  1.3259053163264045e-01  9.9877756432920198e-02  6.8192036918154522e-02  4.2452501755101471e-02  2.4259041847104566e-02  1.2816806821974955e-02  6.3089709374609020e-03  2.9169557260897766e-03  1.2775908538928008e-03  5.3482777922086555e-04  2.1597788048208943e-04  8.4929295872903976e-05  3.2821581689439844e-05  1.2573068526571737e-05  4.8115205839742626e-06  1.8561623808764904e-06  7.3939716583136438e-07  3.3650763322220430e-07  2.3610574819108372e-07  1.6804185878713154e-01  1.5876079760815429e-01  1.3413948554474786e-01  1.0164953297833504e-01  6.9311370738948094e-02  4.2675177474121424e-02  2.3806674530035828e-02  1.2066599460818266e-02  5.5642968571957968e-03  2.3306274045860010e-03  8.7993509306965743e-04  2.9310125085920487e-04  8.1023992528599835e-05  1.4529764114288139e-05  -1.9495120438442042e-06  -3.8623963313072307e-06  -2.6929352526363890e-06  -1.4896962873102265e-06  -7.5405278949364218e-07  -3.9818956530471937e-07  -2.9820161503314423e-07  1.6814883692562071e-01  1.5902378996635561e-01  1.3457720521986080e-01  1.0204269163576306e-01  6.9459173119141168e-02  4.2541482189511613e-02  2.3498944351585782e-02  1.1729919387304003e-02  5.2969179396034089e-03  2.1627817653147936e-03  7.9604296260615435e-04  2.6231065013013812e-04  7.6485415938344270e-05  1.9481558766556928e-05  4.4284796542680276e-06  1.1287457643473715e-06  5.2352726724393529e-07  3.6952576008643058e-07  2.6543946021995013e-07  1.9127340212277393e-07  1.7095497416782573e-07  1.6821552620039185e-01  1.5909737691055906e-01  1.3464975807367499e-01  1.0208269346796438e-01  6.9443199979732570e-02  4.2479779894095029e-02  2.3426716865957965e-02  1.1679648710659032e-02  5.2803093387768481e-03  2.1724126713850030e-03  8.1733125654749660e-04  2.8352192209987433e-04  9.2100807275632060e-05  2.8844673473124230e-05  9.1163840381801008e-06  3.0455226222832974e-06  1.0833275651715748e-06  3.8805879053973908e-07  1.2439072629325234e-07  2.6155950128916082e-08  -1.3021035446849342e-09  1.6821711498260533e-01  1.5909817502868898e-01  1.3464874069979285e-01  1.0207798766150110e-01  6.9435198515667956e-02  4.2472877375519351e-02  2.3426230636410989e-02  1.1687193798879641e-02  5.2927054382672003e-03  2.1845789773407539e-03  8.2572234654869348e-04  2.8738765213825714e-04  9.2639812344518765e-05  2.7758151156043561e-05  7.6774714461576758e-06  1.8770913973004598e-06  3.3437350907755261e-07  -1.5862976248623486e-08  -6.1712538558167061e-08  -4.8744341527329668e-08  -4.1738657263619987e-08  1.6821631017737843e-01  1.5909720888000362e-01  1.3464771210248083e-01  1.0207708652846195e-01  6.9434828781340996e-02  4.2473502061126385e-02  2.3427849266541987e-02  1.1689064017736972e-02  5.2937913772014627e-03  2.1843167677059023e-03  8.2434180057196454e-04  2.8559701648655784e-04  9.1096949113717181e-05  2.6770885900195382e-05  7.2224969789988540e-06  1.7726875750824653e-06  3.9403262278580011e-07  8.5814186140138944e-08  2.7552422618795535e-08  1.8792077855497869e-08  1.9121863349303927e-08  1.6821637361171299e-01  1.5909729066082109e-01  1.3464780866177842e-01  1.0207719571043310e-01  6.9434947047348719e-02  4.2473596936894127e-02  2.3427835650034170e-02  1.1688848390789741e-02  5.2933713605717268e-03  2.1838246668612351e-03  8.2396630605796779e-04  2.8545610037900856e-04  9.1179152949826770e-05  2.6975694167214397e-05  7.4401067958821809e-06  1.9367782474401283e-06  4.8861861309861479e-07  1.2521163354869756e-07  3.3955711230712558e-08  9.5117856683387776e-09  4.0791817752679620e-09  1.6821637721927790e-01  1.5909729501704473e-01  1.3464781362474385e-01  1.0207720010423547e-01  6.9434948405126942e-02  4.2473591692209420e-02  2.3427822705699687e-02  1.1688836457989731e-02  5.2933808869147347e-03  2.1838751885481138e-03  8.2405757255798551e-04  2.8556311388435552e-04  9.1267810937932045e-05  2.7024153468631186e-05  7.4479376768262639e-06  1.9186731097426875e-06  4.6213317475727207e-07  1.0227068290275661e-07  1.8935842049354142e-08  1.2686507922217477e-09  -1.7641720945645722e-09  1.6821637600477934e-01  1.5909729339452502e-01  1.3464781167453263e-01  1.0207719810400782e-01  6.9434946772497508e-02  4.2473590992995761e-02  2.3427823781153261e-02  1.1688840212063791e-02  5.2933870981483324e-03  2.1838810642686420e-03  8.2405823580183326e-04  2.8555478454121513e-04  9.1251069800590639e-05  2.7004000122006512e-05  7.4305670727027990e-06  1.9079448429422333e-06  4.5833644246390710e-07  1.0328106968236577e-07  2.2191688736689658e-08  5.1717374115716783e-09  2.5531365206129280e-09  1.6821637601369904e-01  1.5909729345006285e-01  1.3464781174765270e-01  1.0207719813698381e-01  6.9434946696462108e-02  4.2473590743498296e-02  2.3427823290322281e-02  1.1688839359538553e-02  5.2933856775564826e-03  2.1838789173924604e-03  8.2405558183261981e-04  2.8555242363425138e-04  9.1250074397992618e-05  2.7005010031948071e-05  7.4333042019190917e-06  1.9113876358016355e-06  4.6135754766709360e-07  1.0520079442977868e-07  2.2914063254331528e-08  4.9931712159649386e-09  1.9647980194261397e-09  1.6821637605603362e-01  1.5909729348402640e-01  1.3464781177899729e-01  1.0207719817484025e-01  6.9434946754136764e-02  4.2473590836923328e-02  2.3427823434114620e-02  1.1688839565034671e-02  5.2933859606805007e-03  2.1838793138041330e-03  8.2405614191349689e-04  2.8555316012885779e-04  9.1250892607142912e-05  2.7005704039613717e-05  7.4336589154501089e-06  1.9113146088743090e-06  4.6094849529529067e-07  1.0465956517230853e-07  2.2429650690761427e-08  4.6373858694827191e-09  1.6457929644470873e-09  1.6821637604120482e-01  1.5909729352125068e-01  1.3464781188635583e-01  1.0207719835103971e-01  6.9434946969505196e-02  4.2473591041894299e-02  2.3427823580989243e-02  1.1688839628362925e-02  5.2933859433654112e-03  2.1838792367852313e-03  8.2405602580059613e-04  2.8555301231565281e-04  9.1250710645731262e-05  2.7005493226675007e-05  7.4334468579009134e-06  1.9111455490303286e-06  4.6085968538882696e-07  1.0466064587972047e-07  2.2503198476324984e-08  4.7586830129304208e-09  1.8013476008900001e-09  1.6821637630368486e-01  1.5909729340412743e-01  1.3464781129024936e-01  1.0207719739116396e-01  6.9434945924560260e-02  4.2473590219755900e-02  2.3427823172540423e-02  1.1688839639966937e-02  5.2933862372760406e-03  2.1838796311989977e-03  8.2405638163516844e-04  2.8555326707152171e-04  9.1250865528449065e-05  2.7005580860409457e-05  7.4335022115119795e-06  1.9111898473893969e-06  4.6089777807538444e-07  1.0468735262221711e-07  2.2512152850117695e-08  4.7488544100096679e-09  1.7812062214882826e-09  1.6821637648150509e-01  1.5909729516689353e-01  1.3464781482082883e-01  1.0207720149008037e-01  6.9434948873441912e-02  4.2473590813368739e-02  2.3427821329327574e-02  1.1688836268470573e-02  5.2933825856844516e-03  2.1838766455523455e-03  8.2405443565368745e-04  2.8555226436046349e-04  9.1250497185296916e-05  2.7005539088817684e-05  7.4335771317693884e-06  1.9112748325311930e-06  4.6095621319257632e-07  1.0471764877995072e-07  2.2524400029054079e-08  4.7527239370994385e-09  1.7809838322039194e-09  1.6821634048282152e-01  1.5909726293982879e-01  1.3464778892026147e-01  1.0207718853506123e-01  6.9434953593639048e-02  4.2473611717103663e-02  2.3427850969696420e-02  1.1688865379177007e-02  5.2934045775588755e-03  2.1838895057566649e-03  8.2405974580912749e-04  2.8555300425336331e-04  9.1249302715316213e-05  2.7004015277989219e-05  7.4323947542920574e-06  1.9105496422389438e-06  4.6058222663388350e-07  1.0455469474636226e-07  2.2467402858683417e-08  4.7395364128494808e-09  1.7799531393717447e-09  1.6821672954582542e-01  1.5909754512304664e-01  1.3464792495537969e-01  1.0207716791944503e-01  6.9434808613539054e-02  4.2473409715642833e-02  2.3427664341102508e-02  1.1688740259531065e-02  5.2933493615630609e-03  2.1838855921716064e-03  8.2408079933181920e-04  2.8557879989989110e-04  9.1269789966357272e-05  2.7016922065964943e-05  7.4392021234049487e-06  1.9135751530817431e-06  4.6166502341924994e-07  1.0479853770766993e-07  2.2416109752413781e-08  4.6176273425040974e-09  1.6659619105878933e-09  1.6821563819584076e-01  1.5909697119368896e-01  1.3464815754615181e-01  1.0207804968551136e-01  6.9435898124827450e-02  4.2474246890539920e-02  2.3428003831825150e-02  1.1688617042378483e-02  5.2929695744313625e-03  2.1834651305705395e-03  8.2374856389585299e-04  2.8536882636251350e-04  9.1160247075494709e-05  2.6970337254896713e-05  7.4245266291382389e-06  1.9118615304670403e-06  4.6371493672332873e-07  1.0711200360672038e-07  2.4122917005202741e-08  5.7803265937867248e-09  2.5330335740961983e-09  1.6819990000964469e-01  1.5908333848091089e-01  1.3463757888620320e-01  1.0207154079092126e-01  6.9434282406766593e-02  4.2477135301018508e-02  2.3433549901871867e-02  1.1694504943269304e-02  5.2975866565448931e-03  2.1863159548218382e-03  8.2513184350093316e-04  2.8584812891835327e-04  9.1214021904576946e-05  2.6885181001729370e-05  7.3287325967695048e-06  1.8437870094077217e-06  4.2412681794449528e-07  8.6800109206611381e-08  1.4455599259746599e-08  1.0261824970930649e-09  -6.1770368443198161e-10  1.6825147906286067e-01  1.5912782133578474e-01  1.3465789712645865e-01  1.0205481952121537e-01  6.9387905565371388e-02  4.2423135383774298e-02  2.3391729242510303e-02  1.1672284853741567e-02  5.2915466723706828e-03  2.1890348476441947e-03  8.3045970816230611e-04  2.9056182534420948e-04  9.4377932801027346e-05  2.8679449800409834e-05  8.2262552478236272e-06  2.2478886043292242e-06  5.8888486357040461e-07  1.4689472987548334e-07  3.3025691788114584e-08  5.1982136236868163e-09  7.7351629718244302e-10  1.6852822098468870e-01  1.5952695252256663e-01  1.3510166181048450e-01  1.0234268480086255e-01  6.9407487966372972e-02  4.2214849759881531e-02  2.3082494859402159e-02  1.1380109327217050e-02  5.0765012695823501e-03  2.0573862030779217e-03  7.6144126195748464e-04  2.5923309453491401e-04  8.2152702874710280e-05  2.4753245572576185e-05  7.3638110880223398e-06  2.2907587337298437e-06  7.9061555468165727e-07  3.1010653302311382e-07  1.3731684644481044e-07  7.1601772020446040e-08  5.0228068703702194e-08  1.6595628825729433e-01  1.5958497490362367e-01  1.3672841251925927e-01  1.0423635999640374e-01  7.0613200891211203e-02  4.2433718818301824e-02  2.2551657494888307e-02  1.0532793166640003e-02  4.2623707778208439e-03  1.4431753570391549e-03  3.6707792447797616e-04  3.4843520414766339e-05  -3.4031970242711030e-05  -3.1118466151691035e-05  -1.8020987543186529e-05  -8.7694050716380739e-06  -3.8912798201556673e-06  -1.6400070055381843e-06  -6.7965872406391416e-07  -3.0182353405716799e-07  -1.9639471091389488e-07  </DataArray> 
</PointData> 
</Piece>
</UnstructuredGrid>
</VTKFile>