<?xml version="1.0"?>
<VTKFile type="UnstructuredGrid"  version="0.1"  >
<UnstructuredGrid>
<Piece  NumberOfPoints="441" NumberOfCells="800">
<Points>
<DataArray  type="Float64"  NumberOfComponents="3"  format="ascii">-2 -2 0  -1.8 -2 0  -1.6 -2 0  -1.4 -2 0  -1.2 -2 0  -1 -2 0  -0.8 -2 0  -0.6000000000000001 -2 0  -0.3999999999999999 -2 0  -0.2 -2 0  0 -2 0  0.2000000000000002 -2 0  0.3999999999999999 -2 0  0.6000000000000001 -2 0  0.7999999999999998 -2 0  1 -2 0  1.2 -2 0  1.4 -2 0  1.6 -2 0  1.8 -2 0  2 -2 0  -2 -1.8 0  -1.8 -1.8 0  -1.6 -1.8 0  -1.4 -1.8 0  -1.2 -1.8 0  -1 -1.8 0  -0.8 -1.8 0  -0.6000000000000001 -1.8 0  -0.3999999999999999 -1.8 0  -0.2 -1.8 0  0 -1.8 0  0.2000000000000002 -1.8 0  0.3999999999999999 -1.8 0  0.6000000000000001 -1.8 0  0.7999999999999998 -1.8 0  1 -1.8 0  1.2 -1.8 0  1.4 -1.8 0  1.6 -1.8 0  1.8 -1.8 0  2 -1.8 0  -2 -1.6 0  -1.8 -1.6 0  -1.6 -1.6 0  -1.4 -1.6 0  -1.2 -1.6 0  -1 -1.6 0  -0.8 -1.6 0  -0.6000000000000001 -1.6 0  -0.3999999999999999 -1.6 0  -0.2 -1.6 0  0 -1.6 0  0.2000000000000002 -1.6 0  0.3999999999999999 -1.6 0  0.6000000000000001 -1.6 0  0.7999999999999998 -1.6 0  1 -1.6 0  1.2 -1.6 0  1.4 -1.6 0  1.6 -1.6 0  1.8 -1.6 0  2 -1.6 0  -2 -1.4 0  -1.8 -1.4 0  -1.6 -1.4 0  -1.4 -1.4 0  -1.2 -1.4 0  -1 -1.4 0  -0.8 -1.4 0  -0.6000000000000001 -1.4 0  -0.3999999999999999 -1.4 0  -0.2 -1.4 0  0 -1.4 0  0.2000000000000002 -1.4 0  0.3999999999999999 -1.4 0  0.6000000000000001 -1.4 0  0.7999999999999998 -1.4 0  1 -1.4 0  1.2 -1.4 0  1.4 -1.4 0  1.6 -1.4 0  1.8 -1.4 0  2 -1.4 0  -2 -1.2 0  -1.8 -1.2 0  -1.6 -1.2 0  -1.4 -1.2 0  -1.2 -1.2 0  -1 -1.2 0  -0.8 -1.2 0  -0.6000000000000001 -1.2 0  -0.3999999999999999 -1.2 0  -0.2 -1.2 0  0 -1.2 0  0.2000000000000002 -1.2 0  0.3999999999999999 -1.2 0  0.6000000000000001 -1.2 0  0.7999999999999998 -1.2 0  1 -1.2 0  1.2 -1.2 0  1.4 -1.2 0  1.6 -1.2 0  1.8 -1.2 0  2 -1.2 0  -2 -1 0  -1.8 -1 0  -1.6 -1 0  -1.4 -1 0  -1.2 -1 0  -1 -1 0  -0.8 -1 0  -0.6000000000000001 -1 0  -0.3999999999999999 -1 0  -0.2 -1 0  0 -1 0  0.2000000000000002 -1 0  0.3999999999999999 -1 0  0.6000000000000001 -1 0  0.7999999999999998 -1 0  1 -1 0  1.2 -1 0  1.4 -1 0  1.6 -1 0  1.8 -1 0  2 -1 0  -2 -0.8 0  -1.8 -0.8 0  -1.6 -0.8 0  -1.4 -0.8 0  -1.2 -0.8 0  -1 -0.8 0  -0.8 -0.8 0  -0.6000000000000001 -0.8 0  -0.3999999999999999 -0.8 0  -0.2 -0.8 0  0 -0.8 0  0.2000000000000002 -0.8 0  0.3999999999999999 -0.8 0  0.6000000000000001 -0.8 0  0.7999999999999998 -0.8 0  1 -0.8 0  1.2 -0.8 0  1.4 -0.8 0  1.6 -0.8 0  1.8 -0.8 0  2 -0.8 0  -2 -0.6000000000000001 0  -1.8 -0.6000000000000001 0  -1.6 -0.6000000000000001 0  -1.4 -0.6000000000000001 0  -1.2 -0.6000000000000001 0  -1 -0.6000000000000001 0  -0.8 -0.6000000000000001 0  -0.6000000000000001 -0.6000000000000001 0  -0.3999999999999999 -0.6000000000000001 0  -0.2 -0.6000000000000001 0  0 -0.6000000000000001 0  0.2000000000000002 -0.6000000000000001 0  0.3999999999999999 -0.6000000000000001 0  0.6000000000000001 -0.6000000000000001 0  0.7999999999999998 -0.6000000000000001 0  1 -0.6000000000000001 0  1.2 -0.6000000000000001 0  1.4 -0.6000000000000001 0  1.6 -0.6000000000000001 0  1.8 -0.6000000000000001 0  2 -0.6000000000000001 0  -2 -0.3999999999999999 0  -1.8 -0.3999999999999999 0  -1.6 -0.3999999999999999 0  -1.4 -0.3999999999999999 0  -1.2 -0.3999999999999999 0  -1 -0.3999999999999999 0  -0.8 -0.3999999999999999 0  -0.6000000000000001 -0.3999999999999999 0  -0.3999999999999999 -0.3999999999999999 0  -0.2 -0.3999999999999999 0  0 -0.3999999999999999 0  0.2000000000000002 -0.3999999999999999 0  0.3999999999999999 -0.3999999999999999 0  0.6000000000000001 -0.3999999999999999 0  0.7999999999999998 -0.3999999999999999 0  1 -0.3999999999999999 0  1.2 -0.3999999999999999 0  1.4 -0.3999999999999999 0  1.6 -0.3999999999999999 0  1.8 -0.3999999999999999 0  2 -0.3999999999999999 0  -2 -0.2 0  -1.8 -0.2 0  -1.6 -0.2 0  -1.4 -0.2 0  -1.2 -0.2 0  -1 -0.2 0  -0.8 -0.2 0  -0.6000000000000001 -0.2 0  -0.3999999999999999 -0.2 0  -0.2 -0.2 0  0 -0.2 0  0.2000000000000002 -0.2 0  0.3999999999999999 -0.2 0  0.6000000000000001 -0.2 0  0.7999999999999998 -0.2 0  1 -0.2 0  1.2 -0.2 0  1.4 -0.2 0  1.6 -0.2 0  1.8 -0.2 0  2 -0.2 0  -2 0 0  -1.8 0 0  -1.6 0 0  -1.4 0 0  -1.2 0 0  -1 0 0  -0.8 0 0  -0.6000000000000001 0 0  -0.3999999999999999 0 0  -0.2 0 0  0 0 0  0.2000000000000002 0 0  0.3999999999999999 0 0  0.6000000000000001 0 0  0.7999999999999998 0 0  1 0 0  1.2 0 0  1.4 0 0  1.6 0 0  1.8 0 0  2 0 0  -2 0.2000000000000002 0  -1.8 0.2000000000000002 0  -1.6 0.2000000000000002 0  -1.4 0.2000000000000002 0  -1.2 0.2000000000000002 0  -1 0.2000000000000002 0  -0.8 0.2000000000000002 0  -0.6000000000000001 0.2000000000000002 0  -0.3999999999999999 0.2000000000000002 0  -0.2 0.2000000000000002 0  0 0.2000000000000002 0  0.2000000000000002 0.2000000000000002 0  0.3999999999999999 0.2000000000000002 0  0.6000000000000001 0.2000000000000002 0  0.7999999999999998 0.2000000000000002 0  1 0.2000000000000002 0  1.2 0.2000000000000002 0  1.4 0.2000000000000002 0  1.6 0.2000000000000002 0  1.8 0.2000000000000002 0  2 0.2000000000000002 0  -2 0.3999999999999999 0  -1.8 0.3999999999999999 0  -1.6 0.3999999999999999 0  -1.4 0.3999999999999999 0  -1.2 0.3999999999999999 0  -1 0.3999999999999999 0  -0.8 0.3999999999999999 0  -0.6000000000000001 0.3999999999999999 0  -0.3999999999999999 0.3999999999999999 0  -0.2 0.3999999999999999 0  0 0.3999999999999999 0  0.2000000000000002 0.3999999999999999 0  0.3999999999999999 0.3999999999999999 0  0.6000000000000001 0.3999999999999999 0  0.7999999999999998 0.3999999999999999 0  1 0.3999999999999999 0  1.2 0.3999999999999999 0  1.4 0.3999999999999999 0  1.6 0.3999999999999999 0  1.8 0.3999999999999999 0  2 0.3999999999999999 0  -2 0.6000000000000001 0  -1.8 0.6000000000000001 0  -1.6 0.6000000000000001 0  -1.4 0.6000000000000001 0  -1.2 0.6000000000000001 0  -1 0.6000000000000001 0  -0.8 0.6000000000000001 0  -0.6000000000000001 0.6000000000000001 0  -0.3999999999999999 0.6000000000000001 0  -0.2 0.6000000000000001 0  0 0.6000000000000001 0  0.2000000000000002 0.6000000000000001 0  0.3999999999999999 0.6000000000000001 0  0.6000000000000001 0.6000000000000001 0  0.7999999999999998 0.6000000000000001 0  1 0.6000000000000001 0  1.2 0.6000000000000001 0  1.4 0.6000000000000001 0  1.6 0.6000000000000001 0  1.8 0.6000000000000001 0  2 0.6000000000000001 0  -2 0.7999999999999998 0  -1.8 0.7999999999999998 0  -1.6 0.7999999999999998 0  -1.4 0.7999999999999998 0  -1.2 0.7999999999999998 0  -1 0.7999999999999998 0  -0.8 0.7999999999999998 0  -0.6000000000000001 0.7999999999999998 0  -0.3999999999999999 0.7999999999999998 0  -0.2 0.7999999999999998 0  0 0.7999999999999998 0  0.2000000000000002 0.7999999999999998 0  0.3999999999999999 0.7999999999999998 0  0.6000000000000001 0.7999999999999998 0  0.7999999999999998 0.7999999999999998 0  1 0.7999999999999998 0  1.2 0.7999999999999998 0  1.4 0.7999999999999998 0  1.6 0.7999999999999998 0  1.8 0.7999999999999998 0  2 0.7999999999999998 0  -2 1 0  -1.8 1 0  -1.6 1 0  -1.4 1 0  -1.2 1 0  -1 1 0  -0.8 1 0  -0.6000000000000001 1 0  -0.3999999999999999 1 0  -0.2 1 0  0 1 0  0.2000000000000002 1 0  0.3999999999999999 1 0  0.6000000000000001 1 0  0.7999999999999998 1 0  1 1 0  1.2 1 0  1.4 1 0  1.6 1 0  1.8 1 0  2 1 0  -2 1.2 0  -1.8 1.2 0  -1.6 1.2 0  -1.4 1.2 0  -1.2 1.2 0  -1 1.2 0  -0.8 1.2 0  -0.6000000000000001 1.2 0  -0.3999999999999999 1.2 0  -0.2 1.2 0  0 1.2 0  0.2000000000000002 1.2 0  0.3999999999999999 1.2 0  0.6000000000000001 1.2 0  0.7999999999999998 1.2 0  1 1.2 0  1.2 1.2 0  1.4 1.2 0  1.6 1.2 0  1.8 1.2 0  2 1.2 0  -2 1.4 0  -1.8 1.4 0  -1.6 1.4 0  -1.4 1.4 0  -1.2 1.4 0  -1 1.4 0  -0.8 1.4 0  -0.6000000000000001 1.4 0  -0.3999999999999999 1.4 0  -0.2 1.4 0  0 1.4 0  0.2000000000000002 1.4 0  0.3999999999999999 1.4 0  0.6000000000000001 1.4 0  0.7999999999999998 1.4 0  1 1.4 0  1.2 1.4 0  1.4 1.4 0  1.6 1.4 0  1.8 1.4 0  2 1.4 0  -2 1.6 0  -1.8 1.6 0  -1.6 1.6 0  -1.4 1.6 0  -1.2 1.6 0  -1 1.6 0  -0.8 1.6 0  -0.6000000000000001 1.6 0  -0.3999999999999999 1.6 0  -0.2 1.6 0  0 1.6 0  0.2000000000000002 1.6 0  0.3999999999999999 1.6 0  0.6000000000000001 1.6 0  0.7999999999999998 1.6 0  1 1.6 0  1.2 1.6 0  1.4 1.6 0  1.6 1.6 0  1.8 1.6 0  2 1.6 0  -2 1.8 0  -1.8 1.8 0  -1.6 1.8 0  -1.4 1.8 0  -1.2 1.8 0  -1 1.8 0  -0.8 1.8 0  -0.6000000000000001 1.8 0  -0.3999999999999999 1.8 0  -0.2 1.8 0  0 1.8 0  0.2000000000000002 1.8 0  0.3999999999999999 1.8 0  0.6000000000000001 1.8 0  0.7999999999999998 1.8 0  1 1.8 0  1.2 1.8 0  1.4 1.8 0  1.6 1.8 0  1.8 1.8 0  2 1.8 0  -2 2 0  -1.8 2 0  -1.6 2 0  -1.4 2 0  -1.2 2 0  -1 2 0  -0.8 2 0  -0.6000000000000001 2 0  -0.3999999999999999 2 0  -0.2 2 0  0 2 0  0.2000000000000002 2 0  0.3999999999999999 2 0  0.6000000000000001 2 0  0.7999999999999998 2 0  1 2 0  1.2 2 0  1.4 2 0  1.6 2 0  1.8 2 0  2 2 0  </DataArray>
</Points>
<Cells>
[...]
<PointData  Scalars="f_8"> 
<DataArray  type="Float64"  Name="f_8"  format="ascii">3.7766197444521132e-01  3.7665013163780509e-01  3.7413130058879568e-01  3.7014786016123224e-01  3.6478747175449133e-01  3.5817720518339757e-01  3.5047811777330340e-01  3.4187982267140704e-01  3.3259485230848818e-01  3.2285277971168008e-01  3.1289415072152388e-01  3.0296433081176388e-01  2.9330739691726287e-01  2.8416021742400893e-01  2.7574686947385674e-01  2.6827354839652512e-01  2.6192413667270803e-01  2.5685662943782417e-01  2.5320067601915641e-01  2.5105661905350929e-01  2.5049664080972089e-01  3.7719862867746567e-01  3.7639023411964745e-01  3.7400332006000903e-01  3.7010883361079372e-01  3.6481066904946580e-01  3.5824510457261488e-01  3.5057840371472965e-01  3.4200310900971609e-01  3.3273339096699001e-01  3.2299972814223282e-01  3.1304314636449337e-01  3.0310921636574412e-01  2.9344198789611503e-01  2.8427801878135633e-01  2.7584063574807816e-01  2.6833453752267517e-01  2.6194081641411310e-01  2.5681242674828630e-01  2.5307005681380185e-01  2.5079824623102431e-01  2.5004139761485966e-01  3.7708466625657500e-01  3.7629143049469832e-01  3.7393262878395167e-01  3.7006967134163421e-01  3.6480175620368221e-01  3.5826291417282125e-01  3.5061837599397305e-01  3.4206024064684265e-01  3.3280251490978813e-01  3.2307564470573386e-01  3.1312068501921836e-01  3.0318326632397447e-01  2.9350751648864293e-01  2.8433009115551566e-01  2.7587445493169416e-01  2.6834554252053566e-01  2.6192491555325903e-01  2.5676652060795518e-01  2.5299315183428711e-01  2.5069373660642025e-01  2.4992161097551061e-01  3.7704611473706162e-01  3.7625574010167223e-01  3.7390461736426328e-01  3.7005239291707831e-01  3.6479655199615202e-01  3.5826970592431467e-01  3.5063599823239322e-01  3.4208673926635003e-01  3.3283539534163747e-01  3.2311207440171269e-01  3.1315766155088848e-01  3.0321776337321910e-01  2.9353661956007088e-01  2.8435113471233636e-01  2.7588517331155044e-01  2.6834424799619983e-01  2.6191071666163590e-01  2.5673958854513973e-01  2.5295502387282692e-01  2.5064759528482400e-01  2.4987235943522421e-01  3.7703384172647136e-01  3.7624436813874279e-01  3.7389585896423216e-01  3.7004755492770119e-01  3.6479640519295115e-01  3.5827445460597040e-01  3.5064531750283612e-01  3.4209985263759241e-01  3.3285117355323185e-01  3.2312914358376493e-01  3.1317451406536312e-01  3.0323286802104898e-01  2.9354852975781598e-01  2.8435859404478753e-01  2.7588721766961921e-01  2.6834030219304739e-01  2.6190068065304040e-01  2.5672390371737758e-01  2.5293470303859494e-01  2.5062419174339062e-01  2.4984784426718087e-01  3.7703168656488295e-01  3.7624253369425636e-01  3.7389496389570970e-01  3.7004809122176552e-01  3.6479867703710428e-01  3.5827854576073553e-01  3.5065108611777079e-01  3.4210694925758989e-01  3.3285907697578310e-01  3.2313720931266532e-01  3.1318203068879763e-01  3.0323911751454374e-01  2.9355284825395656e-01  2.8436042991260452e-01  2.7588618376283475e-01  2.6833621886215275e-01  2.6189360563762043e-01  2.5671414451404673e-01  2.5292280712556531e-01  2.5061091074501890e-01  2.4983407066383195e-01  3.7703309394828022e-01  3.7624404940491063e-01  3.7389679165704703e-01  3.7005038859108880e-01  3.6480153061514203e-01  3.5828195558689702e-01  3.5065496045200240e-01  3.4211110956697283e-01  3.3286327194822068e-01  3.2314113609588480e-01  3.1318536121910184e-01  3.0324152766297907e-01  2.9355404749873404e-01  2.8436018929121798e-01  2.7588435993868826e-01  2.6833277226109026e-01  2.6188861080211612e-01  2.5670779114920772e-01  2.5291539085706333e-01  2.5060281346317803e-01  2.4982573153608340e-01  3.7703532821997410e-01  3.7624631211817594e-01  3.7389913059472979e-01  3.7005283400091715e-01  3.6480408560185812e-01  3.5828458986363587e-01  3.5065760815445113e-01  3.4211367133355819e-01  3.3286562101183281e-01  3.2314312775830067e-01  3.1318684480339198e-01  3.0324235986056380e-01  2.9355410593757575e-01  2.8435938513982112e-01  2.7588264841989157e-01  2.6833016007759497e-01  2.6188515967448306e-01  2.5670361694120108e-01  2.5291065811472069e-01  2.5059772561464816e-01  2.4982051746112430e-01  3.7703736902929602e-01  3.7624835334952933e-01  3.7390116705026089e-01  3.7005485397278509e-01  3.6480606738085936e-01  3.5828649956147174e-01  3.5065939915550731e-01  3.4211528550316234e-01  3.3286699159539113e-01  3.2314418373019865e-01  3.1318751628074604e-01  3.0324258409371641e-01  2.9355383333090546e-01  2.8435858474403936e-01  2.7588131236951074e-01  2.6832830652230028e-01  2.6188283386709571e-01  2.5670089029239906e-01  2.5290762519755233e-01  2.5059449928811045e-01  2.4981722246496482e-01  3.7703898921499973e-01  3.7624996560423452e-01  3.7390275201978412e-01  3.7005639002995189e-01  3.6480752948968664e-01  3.5828785868326646e-01  3.5066062233120693e-01  3.4211633666882391e-01  3.3286783310496959e-01  3.2314477848063350e-01  3.1318783026661573e-01  3.0324258916821789e-01  2.9355350992057633e-01  2.8435792425842654e-01  2.7588031906408755e-01  2.6832699861193149e-01  2.6188124374535415e-01  2.5669906378474544e-01  2.5290561985814647e-01  2.5059238183394283e-01  2.4981506551929109e-01  3.7704031709152525e-01  3.7625128350887183e-01  3.7390403848005477e-01  3.7005762273259601e-01  3.6480868492856855e-01  3.5828891208495151e-01  3.5066154792453302e-01  3.4211710832443765e-01  3.3286842532704136e-01  3.2314516769050172e-01  3.1318799628128502e-01  3.0324251674905356e-01  2.9355319025178517e-01  2.8435735621242547e-01  2.7587951012188061e-01  2.6832596533022784e-01  2.6188001169639596e-01  2.5669766693678370e-01  2.5290409941058739e-01  2.5059078456728745e-01  2.4981344176185347e-01  3.7704162485559617e-01  3.7625258054848820e-01  3.7390530332525590e-01  3.7005883307899923e-01  3.6480981729508671e-01  3.5828994175414081e-01  3.5066244922863360e-01  3.4211785529948519e-01  3.3286899271390591e-01  3.2314553221995229e-01  3.1318813814439800e-01  3.0324242112791167e-01  2.9355284877089222e-01  2.8435676816988553e-01  2.7587868337131072e-01  2.6832491670861375e-01  2.6187876692765355e-01  2.5669625998274465e-01  2.5290257128685639e-01  2.5058918168682554e-01  2.4981181390998936e-01  3.7704321327077239e-01  3.7625415853156330e-01  3.7390685108939814e-01  3.7006032855553306e-01  3.6481123504779128e-01  3.5829125245598020e-01  3.5066361982198418e-01  3.4211884988246588e-01  3.3286977411382218e-01  3.2314606413866237e-01  3.1318838769668672e-01  3.0324236154796469e-01  2.9355246203704599e-01  2.8435604729554215e-01  2.7587763413017524e-01  2.6832355860368190e-01  2.6187713327268708e-01  2.5669439703795954e-01  2.5290053647148442e-01  2.5058704097310713e-01  2.4980963857816008e-01  3.7704529675848864e-01  3.7625623782120249e-01  3.7390891880602822e-01  3.7006237065062608e-01  3.6481322747217731e-01  3.5829315920295202e-01  3.5066539261925889e-01  3.4212042962199307e-01  3.3287109392077940e-01  3.2314705381414899e-01  3.1318897913526639e-01  3.0324249463854891e-01  2.9355209050680819e-01  2.8435514395208639e-01  2.7587619499591587e-01  2.6832160551610307e-01  2.6187471464141532e-01  2.5669158659905811e-01  2.5289743005262849e-01  2.5058375146759243e-01  2.4980628950334577e-01  3.7704778838429326e-01  3.7625875183510377e-01  3.7391149696246390e-01  3.7006503641107152e-01  3.6481597685773914e-01  3.5829595514025075e-01  3.5066816338226975e-01  3.4212307148142379e-01  3.3287347767616293e-01  3.2314903453522653e-01  3.1319040818800425e-01  3.0324323291298044e-01  2.9355202168890915e-01  2.8435418668043816e-01  2.7587431281017177e-01  2.6831881363768917e-01  2.6187108283155675e-01  2.5668723762084694e-01  2.5289253362415332e-01  2.5057851402138437e-01  2.4980094053043339e-01  3.7704984344983500e-01  3.7626091181908788e-01  3.7391395291606572e-01  3.7006793074430971e-01  3.6481937980380658e-01  3.5829985064704006e-01  3.5067244535645242e-01  3.4212755000843453e-01  3.3287789393004885e-01  3.2315308253910041e-01  3.1319376130061938e-01  3.0324557280714637e-01  2.9355306757808608e-01  2.8435372259177077e-01  2.7587221077486751e-01  2.6831505078226425e-01  2.6186575054613220e-01  2.5668054132313234e-01  2.5288478222100264e-01  2.5057009908142142e-01  2.4979230645246320e-01  3.7704889223047622e-01  3.7626029228120789e-01  3.7391426029334923e-01  3.7006962698760776e-01  3.6482273618344402e-01  3.5830491881208987e-01  3.5067905514405834e-01  3.4213532952906278e-01  3.3288630662740831e-01  3.2316147612958912e-01  3.1320142411292790e-01  3.0325179369799332e-01  2.9355719609644382e-01  2.8435522630425014e-01  2.7587072661202300e-01  2.6831042693126772e-01  2.6185807487930651e-01  2.5667015181119052e-01  2.5287225462484975e-01  2.5055620811239693e-01  2.4977795948742557e-01  3.7703846447385136e-01  3.7625081881237821e-01  3.7390740746742152e-01  3.7006664162109504e-01  3.6482432754600069e-01  3.5831123632112422e-01  3.5068972972206547e-01  3.4214955245564849e-01  3.3290292795035442e-01  3.2317911164682472e-01  3.1321856486058181e-01  3.0326691501301833e-01  2.9356886507826208e-01  2.8436220717145821e-01  2.7587208311492828e-01  2.6830561948281983e-01  2.6184704704393635e-01  2.5665339578969731e-01  2.5285083818903964e-01  2.5053173701250597e-01  2.4975244390864212e-01  3.7700234111060144e-01  3.7621771612231031e-01  3.7388200917933329e-01  3.7005186909715143e-01  3.6482142169280091e-01  3.5832005378321313e-01  3.5070906837303562e-01  3.4217744129509081e-01  3.3293686757530511e-01  3.2321627084559656e-01  3.1325594468929435e-01  3.0330149250071647e-01  2.9359772831947717e-01  2.8438269358101625e-01  2.7588193342053668e-01  2.6830316110106484e-01  2.6183142006635285e-01  2.5662482873010889e-01  2.5281095976864992e-01  2.5048385525939165e-01  2.4970159491945162e-01  3.7689131862511760e-01  3.7612219283042331e-01  3.7381435123702655e-01  3.7001529176498515e-01  3.6481462183622404e-01  3.5833955390196370e-01  3.5075037972107659e-01  3.4223562870927171e-01  3.3300681831206103e-01  3.2329282109715279e-01  3.1333393965831347e-01  3.0337581643536538e-01  2.9366332280551888e-01  2.8443457760402302e-01  2.7591524491659380e-01  2.6831325938983991e-01  2.6181413002531634e-01  2.5657698832308290e-01  2.5273158622112363e-01  2.5037653479463551e-01  2.4957924356713052e-01  3.7643344929481859e-01  3.7586465748708203e-01  3.7368700230269197e-01  3.6997598834049661e-01  3.6483713313251015e-01  3.5840666802756943e-01  3.5084997591843342e-01  3.4235844215779954e-01  3.3314517223474810e-01  3.2343990748730705e-01  3.1348340123540491e-01  3.0352147579456012e-01  2.9379895100551839e-01  2.8455360867647861e-01  2.7601032937095532e-01  2.6837550401329741e-01  2.6183177772299410e-01  2.5653311902329240e-01  2.5260010981320163e-01  2.5011519452792313e-01  2.4911736446716234e-01  </DataArray> 
</PointData> 
</Piece>
</UnstructuredGrid>
</VTKFile>