<?xml version="1.0"?>
<VTKFile type="UnstructuredGrid"  version="0.1"  >
<UnstructuredGrid>
<Piece  NumberOfPoints="441" NumberOfCells="800">
<Points>
<DataArray  type="Float64"  NumberOfComponents="3"  format="ascii">-2 -2 0  -1.8 -2 0  -1.6 -2 0  -1.4 -2 0  -1.2 -2 0  -1 -2 0  -0.8 -2 0  -0.6000000000000001 -2 0  -0.3999999999999999 -2 0  -0.2 -2 0  0 -2 0  0.2000000000000002 -2 0  0.3999999999999999 -2 0  0.6000000000000001 -2 0  0.7999999999999998 -2 0  1 -2 0  1.2 -2 0  1.4 -2 0  1.6 -2 0  1.8 -2 0  2 -2 0  -2 -1.8 0  -1.8 -1.8 0  -1.6 -1.8 0  -1.4 -1.8 0  -1.2 -1.8 0  -1 -1.8 0  -0.8 -1.8 0  -0.6000000000000001 -1.8 0  -0.3999999999999999 -1.8 0  -0.2 -1.8 0  0 -1.8 0  0.2000000000000002 -1.8 0  0.3999999999999999 -1.8 0  0.6000000000000001 -1.8 0  0.7999999999999998 -1.8 0  1 -1.8 0  1.2 -1.8 0  1.4 -1.8 0  1.6 -1.8 0  1.8 -1.8 0  2 -1.8 0  -2 -1.6 0  -1.8 -1.6 0  -1.6 -1.6 0  -1.4 -1.6 0  -1.2 -1.6 0  -1 -1.6 0  -0.8 -1.6 0  -0.6000000000000001 -1.6 0  -0.3999999999999999 -1.6 0  -0.2 -1.6 0  0 -1.6 0  0.2000000000000002 -1.6 0  0.3999999999999999 -1.6 0  0.6000000000000001 -1.6 0  0.7999999999999998 -1.6 0  1 -1.6 0  1.2 -1.6 0  1.4 -1.6 0  1.6 -1.6 0  1.8 -1.6 0  2 -1.6 0  -2 -1.4 0  -1.8 -1.4 0  -1.6 -1.4 0  -1.4 -1.4 0  -1.2 -1.4 0  -1 -1.4 0  -0.8 -1.4 0  -0.6000000000000001 -1.4 0  -0.3999999999999999 -1.4 0  -0.2 -1.4 0  0 -1.4 0  0.2000000000000002 -1.4 0  0.3999999999999999 -1.4 0  0.6000000000000001 -1.4 0  0.7999999999999998 -1.4 0  1 -1.4 0  1.2 -1.4 0  1.4 -1.4 0  1.6 -1.4 0  1.8 -1.4 0  2 -1.4 0  -2 -1.2 0  -1.8 -1.2 0  -1.6 -1.2 0  -1.4 -1.2 0  -1.2 -1.2 0  -1 -1.2 0  -0.8 -1.2 0  -0.6000000000000001 -1.2 0  -0.3999999999999999 -1.2 0  -0.2 -1.2 0  0 -1.2 0  0.2000000000000002 -1.2 0  0.3999999999999999 -1.2 0  0.6000000000000001 -1.2 0  0.7999999999999998 -1.2 0  1 -1.2 0  1.2 -1.2 0  1.4 -1.2 0  1.6 -1.2 0  1.8 -1.2 0  2 -1.2 0  -2 -1 0  -1.8 -1 0  -1.6 -1 0  -1.4 -1 0  -1.2 -1 0  -1 -1 0  -0.8 -1 0  -0.6000000000000001 -1 0  -0.3999999999999999 -1 0  -0.2 -1 0  0 -1 0  0.2000000000000002 -1 0  0.3999999999999999 -1 0  0.6000000000000001 -1 0  0.7999999999999998 -1 0  1 -1 0  1.2 -1 0  1.4 -1 0  1.6 -1 0  1.8 -1 0  2 -1 0  -2 -0.8 0  -1.8 -0.8 0  -1.6 -0.8 0  -1.4 -0.8 0  -1.2 -0.8 0  -1 -0.8 0  -0.8 -0.8 0  -0.6000000000000001 -0.8 0  -0.3999999999999999 -0.8 0  -0.2 -0.8 0  0 -0.8 0  0.2000000000000002 -0.8 0  0.3999999999999999 -0.8 0  0.6000000000000001 -0.8 0  0.7999999999999998 -0.8 0  1 -0.8 0  1.2 -0.8 0  1.4 -0.8 0  1.6 -0.8 0  1.8 -0.8 0  2 -0.8 0  -2 -0.6000000000000001 0  -1.8 -0.6000000000000001 0  -1.6 -0.6000000000000001 0  -1.4 -0.6000000000000001 0  -1.2 -0.6000000000000001 0  -1 -0.6000000000000001 0  -0.8 -0.6000000000000001 0  -0.6000000000000001 -0.6000000000000001 0  -0.3999999999999999 -0.6000000000000001 0  -0.2 -0.6000000000000001 0  0 -0.6000000000000001 0  0.2000000000000002 -0.6000000000000001 0  0.3999999999999999 -0.6000000000000001 0  0.6000000000000001 -0.6000000000000001 0  0.7999999999999998 -0.6000000000000001 0  1 -0.6000000000000001 0  1.2 -0.6000000000000001 0  1.4 -0.6000000000000001 0  1.6 -0.6000000000000001 0  1.8 -0.6000000000000001 0  2 -0.6000000000000001 0  -2 -0.3999999999999999 0  -1.8 -0.3999999999999999 0  -1.6 -0.3999999999999999 0  -1.4 -0.3999999999999999 0  -1.2 -0.3999999999999999 0  -1 -0.3999999999999999 0  -0.8 -0.3999999999999999 0  -0.6000000000000001 -0.3999999999999999 0  -0.3999999999999999 -0.3999999999999999 0  -0.2 -0.3999999999999999 0  0 -0.3999999999999999 0  0.2000000000000002 -0.3999999999999999 0  0.3999999999999999 -0.3999999999999999 0  0.6000000000000001 -0.3999999999999999 0  0.7999999999999998 -0.3999999999999999 0  1 -0.3999999999999999 0  1.2 -0.3999999999999999 0  1.4 -0.3999999999999999 0  1.6 -0.3999999999999999 0  1.8 -0.3999999999999999 0  2 -0.3999999999999999 0  -2 -0.2 0  -1.8 -0.2 0  -1.6 -0.2 0  -1.4 -0.2 0  -1.2 -0.2 0  -1 -0.2 0  -0.8 -0.2 0  -0.6000000000000001 -0.2 0  -0.3999999999999999 -0.2 0  -0.2 -0.2 0  0 -0.2 0  0.2000000000000002 -0.2 0  0.3999999999999999 -0.2 0  0.6000000000000001 -0.2 0  0.7999999999999998 -0.2 0  1 -0.2 0  1.2 -0.2 0  1.4 -0.2 0  1.6 -0.2 0  1.8 -0.2 0  2 -0.2 0  -2 0 0  -1.8 0 0  -1.6 0 0  -1.4 0 0  -1.2 0 0  -1 0 0  -0.8 0 0  -0.6000000000000001 0 0  -0.3999999999999999 0 0  -0.2 0 0  0 0 0  0.2000000000000002 0 0  0.3999999999999999 0 0  0.6000000000000001 0 0  0.7999999999999998 0 0  1 0 0  1.2 0 0  1.4 0 0  1.6 0 0  1.8 0 0  2 0 0  -2 0.2000000000000002 0  -1.8 0.2000000000000002 0  -1.6 0.2000000000000002 0  -1.4 0.2000000000000002 0  -1.2 0.2000000000000002 0  -1 0.2000000000000002 0  -0.8 0.2000000000000002 0  -0.6000000000000001 0.2000000000000002 0  -0.3999999999999999 0.2000000000000002 0  -0.2 0.2000000000000002 0  0 0.2000000000000002 0  0.2000000000000002 0.2000000000000002 0  0.3999999999999999 0.2000000000000002 0  0.6000000000000001 0.2000000000000002 0  0.7999999999999998 0.2000000000000002 0  1 0.2000000000000002 0  1.2 0.2000000000000002 0  1.4 0.2000000000000002 0  1.6 0.2000000000000002 0  1.8 0.2000000000000002 0  2 0.2000000000000002 0  -2 0.3999999999999999 0  -1.8 0.3999999999999999 0  -1.6 0.3999999999999999 0  -1.4 0.3999999999999999 0  -1.2 0.3999999999999999 0  -1 0.3999999999999999 0  -0.8 0.3999999999999999 0  -0.6000000000000001 0.3999999999999999 0  -0.3999999999999999 0.3999999999999999 0  -0.2 0.3999999999999999 0  0 0.3999999999999999 0  0.2000000000000002 0.3999999999999999 0  0.3999999999999999 0.3999999999999999 0  0.6000000000000001 0.3999999999999999 0  0.7999999999999998 0.3999999999999999 0  1 0.3999999999999999 0  1.2 0.3999999999999999 0  1.4 0.3999999999999999 0  1.6 0.3999999999999999 0  1.8 0.3999999999999999 0  2 0.3999999999999999 0  -2 0.6000000000000001 0  -1.8 0.6000000000000001 0  -1.6 0.6000000000000001 0  -1.4 0.6000000000000001 0  -1.2 0.6000000000000001 0  -1 0.6000000000000001 0  -0.8 0.6000000000000001 0  -0.6000000000000001 0.6000000000000001 0  -0.3999999999999999 0.6000000000000001 0  -0.2 0.6000000000000001 0  0 0.6000000000000001 0  0.2000000000000002 0.6000000000000001 0  0.3999999999999999 0.6000000000000001 0  0.6000000000000001 0.6000000000000001 0  0.7999999999999998 0.6000000000000001 0  1 0.6000000000000001 0  1.2 0.6000000000000001 0  1.4 0.6000000000000001 0  1.6 0.6000000000000001 0  1.8 0.6000000000000001 0  2 0.6000000000000001 0  -2 0.7999999999999998 0  -1.8 0.7999999999999998 0  -1.6 0.7999999999999998 0  -1.4 0.7999999999999998 0  -1.2 0.7999999999999998 0  -1 0.7999999999999998 0  -0.8 0.7999999999999998 0  -0.6000000000000001 0.7999999999999998 0  -0.3999999999999999 0.7999999999999998 0  -0.2 0.7999999999999998 0  0 0.7999999999999998 0  0.2000000000000002 0.7999999999999998 0  0.3999999999999999 0.7999999999999998 0  0.6000000000000001 0.7999999999999998 0  0.7999999999999998 0.7999999999999998 0  1 0.7999999999999998 0  1.2 0.7999999999999998 0  1.4 0.7999999999999998 0  1.6 0.7999999999999998 0  1.8 0.7999999999999998 0  2 0.7999999999999998 0  -2 1 0  -1.8 1 0  -1.6 1 0  -1.4 1 0  -1.2 1 0  -1 1 0  -0.8 1 0  -0.6000000000000001 1 0  -0.3999999999999999 1 0  -0.2 1 0  0 1 0  0.2000000000000002 1 0  0.3999999999999999 1 0  0.6000000000000001 1 0  0.7999999999999998 1 0  1 1 0  1.2 1 0  1.4 1 0  1.6 1 0  1.8 1 0  2 1 0  -2 1.2 0  -1.8 1.2 0  -1.6 1.2 0  -1.4 1.2 0  -1.2 1.2 0  -1 1.2 0  -0.8 1.2 0  -0.6000000000000001 1.2 0  -0.3999999999999999 1.2 0  -0.2 1.2 0  0 1.2 0  0.2000000000000002 1.2 0  0.3999999999999999 1.2 0  0.6000000000000001 1.2 0  0.7999999999999998 1.2 0  1 1.2 0  1.2 1.2 0  1.4 1.2 0  1.6 1.2 0  1.8 1.2 0  2 1.2 0  -2 1.4 0  -1.8 1.4 0  -1.6 1.4 0  -1.4 1.4 0  -1.2 1.4 0  -1 1.4 0  -0.8 1.4 0  -0.6000000000000001 1.4 0  -0.3999999999999999 1.4 0  -0.2 1.4 0  0 1.4 0  0.2000000000000002 1.4 0  0.3999999999999999 1.4 0  0.6000000000000001 1.4 0  0.7999999999999998 1.4 0  1 1.4 0  1.2 1.4 0  1.4 1.4 0  1.6 1.4 0  1.8 1.4 0  2 1.4 0  -2 1.6 0  -1.8 1.6 0  -1.6 1.6 0  -1.4 1.6 0  -1.2 1.6 0  -1 1.6 0  -0.8 1.6 0  -0.6000000000000001 1.6 0  -0.3999999999999999 1.6 0  -0.2 1.6 0  0 1.6 0  0.2000000000000002 1.6 0  0.3999999999999999 1.6 0  0.6000000000000001 1.6 0  0.7999999999999998 1.6 0  1 1.6 0  1.2 1.6 0  1.4 1.6 0  1.6 1.6 0  1.8 1.6 0  2 1.6 0  -2 1.8 0  -1.8 1.8 0  -1.6 1.8 0  -1.4 1.8 0  -1.2 1.8 0  -1 1.8 0  -0.8 1.8 0  -0.6000000000000001 1.8 0  -0.3999999999999999 1.8 0  -0.2 1.8 0  0 1.8 0  0.2000000000000002 1.8 0  0.3999999999999999 1.8 0  0.6000000000000001 1.8 0  0.7999999999999998 1.8 0  1 1.8 0  1.2 1.8 0  1.4 1.8 0  1.6 1.8 0  1.8 1.8 0  2 1.8 0  -2 2 0  -1.8 2 0  -1.6 2 0  -1.4 2 0  -1.2 2 0  -1 2 0  -0.8 2 0  -0.6000000000000001 2 0  -0.3999999999999999 2 0  -0.2 2 0  0 2 0  0.2000000000000002 2 0  0.3999999999999999 2 0  0.6000000000000001 2 0  0.7999999999999998 2 0  1 2 0  1.2 2 0  1.4 2 0  1.6 2 0  1.8 2 0  2 2 0  </DataArray>
</Points>
<Cells>
[...]
<PointData  Scalars="f_8"> 
<DataArray  type="Float64"  Name="f_8"  format="ascii">2.5674440528144715e-01  2.1753139603416269e-01  1.4641559389136166e-01  8.0783507043094949e-02  3.7827316498333860e-02  1.5566150419977560e-02  5.8204142139930259e-03  2.0395752494404345e-03  6.8827711198141085e-04  2.2864917946652694e-04  7.5919166223164101e-05  2.5393824958854469e-05  8.5711543646095667e-06  2.9129971225453391e-06  9.9314793769748357e-07  3.3843527773244429e-07  1.1497607864315484e-07  3.8967817610504403e-08  1.3409192994055212e-08  5.2239899042624123e-09  3.2447157517777268e-09  2.5084247323718872e-01  2.2063976087132450e-01  1.5154789517244546e-01  8.2832124256572506e-02  3.6736140000280665e-02  1.3384751184080905e-02  3.9735836936801751e-03  8.9417389628924178e-04  9.4701432681965384e-05  -4.4769305624604899e-05  -4.0185965993887070e-05  -2.1142878334916397e-05  -9.3149369526467831e-06  -3.7492594808269585e-06  -1.4289976027877044e-06  -5.2518382354115193e-07  -1.8804676370746251e-07  -6.6091700576866843e-08  -2.3143943480421805e-08  -8.7664761357817903e-09  -5.2630047968752661e-09  2.5079350259302291e-01  2.2110344136869467e-01  1.5223519862847806e-01  8.2864829794978001e-02  3.6202200186524265e-02  1.2866079296143288e-02  3.7493905094045060e-03  8.9831868722023715e-04  1.8105137330610627e-04  3.7346490528875017e-05  1.3372430791501658e-05  7.7600594657606850e-06  4.5190429664353941e-06  2.3398471045907600e-06  1.0905090649118750e-06  4.6918883583582754e-07  1.9013688075701353e-07  7.3711792419793531e-08  2.7906903251996502e-08  1.1223248099163269e-08  7.0582469502027093e-09  2.5079434769396186e-01  2.2111859171686260e-01  1.5224245705406841e-01  8.2812516398668545e-02  3.6146189880797416e-02  1.2884914843385912e-02  3.8277068153062827e-03  9.7499425702991696e-04  2.2402095802535052e-04  5.0424157303256782e-05  1.1710978770587653e-05  2.3495651235491587e-06  -3.8784896141502895e-08  -4.7643445175240294e-07  -3.8860984728848440e-07  -2.2973599758820880e-07  -1.1606589658153479e-07  -5.3154661429032183e-08  -2.2979857737917103e-08  -1.0319638914779373e-08  -7.0252471146589865e-09  2.5079563702164298e-01  2.2111938938936632e-01  1.5223942661859138e-01  8.2807334989952408e-02  3.6148440155438326e-02  1.2895349791806694e-02  3.8342591566602651e-03  9.7038049504190207e-04  2.1278407245707481e-04  4.0095067821476992e-05  5.6553101054096230e-06  1.0628437805498771e-08  -3.9620409688679616e-07  -1.5675171169703060e-07  -5.2121012506096824e-09  3.8550313935298513e-08  3.5709780239396885e-08  2.2732363224984859e-08  1.2338102909645823e-08  6.6203804297466370e-09  5.0446173514365442e-09  2.5079513771286832e-01  2.2111892863043311e-01  1.5223907829538952e-01  8.2807399140112758e-02  3.6148965278751652e-02  1.2895150744167187e-02  3.8324464691355106e-03  9.6816087275145241e-04  2.1195986925952103e-04  4.0956615501003252e-05  7.2230747202198094e-06  1.3434532359396804e-06  3.7743290697992015e-07  1.6317967912503581e-07  7.0986445326123220e-08  2.3348000407460374e-08  2.9894996473896041e-09  -3.0408210441802953e-09  -3.4844655723750953e-09  -2.7001266281903802e-09  -2.4598306064042122e-09  2.5079524561330035e-01  2.2111902808222741e-01  1.5223918893205937e-01  8.2807543588713881e-02  3.6149087460024071e-02  1.2895188472739284e-02  3.8325321212134182e-03  9.6849533581071451e-04  2.1246892780409101e-04  4.1340114831536174e-05  7.3046874027648322e-06  1.1943074924922587e-06  1.6417140628863581e-07  -3.5130554756571922e-09  -2.2740191843721404e-08  -1.5956145998191685e-08  -7.6885216543741633e-09  -2.6312283523069270e-09  -3.6912317574168720e-10  4.0374532002269744e-10  6.3335774837214855e-10  2.5079522905549506e-01  2.2111901574363330e-01  1.5223917533673270e-01  8.2807519052249395e-02  3.6149047922559012e-02  1.2895146712388738e-02  3.8325051430705319e-03  9.6846934633542964e-04  2.1240694305722958e-04  4.1237809038837102e-05  7.2051511826446855e-06  1.1402400436665158e-06  1.6066345859084485e-07  2.0794549181004701e-08  5.4627693709139589e-09  4.3039722870736695e-09  3.2298266387161054e-09  1.8732538769333220e-09  8.4405050506855629e-10  2.8126562749158226e-10  1.0270991397949682e-10  2.5079523053655595e-01  2.2111901566277206e-01  1.5223917469179837e-01  8.2807519681695696e-02  3.6149051677770903e-02  1.2895154143584910e-02  3.8325138047863748e-03  9.6847567618591499e-04  2.1241222728436346e-04  4.1248459166602556e-05  7.2240311051398742e-06  1.1616843154530972e-06  1.7628439015505439e-07  2.7074800468182812e-08  4.6452078032097160e-09  5.8929101395097638e-10  -3.8098896509614836e-10  -5.1565103898042716e-10  -3.8205108471172390e-10  -2.3141802417489802e-10  -1.8363979111797378e-10  2.5079523065126530e-01  2.2111901623601649e-01  1.5223917556919087e-01  8.2807520581778996e-02  3.6149052281226848e-02  1.2895154122941462e-02  3.8325130188589223e-03  9.6847451974087467e-04  2.1241136829703783e-04  4.1247805420487743e-05  7.2224879605579688e-06  1.1584899034791686e-06  1.7212518109340977e-07  2.3464397997961571e-08  2.5724329532958545e-09  1.0439636834909858e-11  -9.6332108143273518e-11  1.8822780791741864e-11  7.4317201650187783e-11  8.1433192768855181e-11  8.7515565747309039e-11  2.5079523063626086e-01  2.2111901607970805e-01  1.5223917529591674e-01  8.2807520229707124e-02  3.6149051894467710e-02  1.2895153761171951e-02  3.8325127625991086e-03  9.6847442142698227e-04  2.1241137398462080e-04  4.1247795173236244e-05  7.2224609469313122e-06  1.1586326844789723e-06  1.7260470062595624e-07  2.4206981851160843e-08  3.3153701453274209e-09  5.2779958746642303e-10  1.3973708132580694e-10  5.1022811840077789e-11  1.0111951227953974e-11  -1.0746066373601108e-11  -1.9981524146353201e-11  2.5079523032496720e-01  2.2111901591092495e-01  1.5223917526935335e-01  8.2807520351767847e-02  3.6149052130140330e-02  1.2895154041201095e-02  3.8325130197193768e-03  9.6847461407883236e-04  2.1241149307933159e-04  4.1247863230654546e-05  7.2225128483362855e-06  1.1586783191713508e-06  1.7261480585108854e-07  2.4148101615098890e-08  3.1930962087553214e-09  3.8659314998610639e-10  2.6670934119877470e-11  -1.2966391650856261e-11  -1.0317790566605682e-11  -3.8033451060370997e-12  -8.9972908051941364e-13  2.5079523149431204e-01  2.2111901661405295e-01  1.5223917538359394e-01  8.2807519779731997e-02  3.6149051102264705e-02  1.2895152976018991e-02  3.8325122252592918e-03  9.6847416387395215e-04  2.1241130249421834e-04  4.1247812316982675e-05  7.2225133379209665e-06  1.1586846988286748e-06  1.7261419195965079e-07  2.4146514350620747e-08  3.2006013441125303e-09  4.0604561546808881e-10  5.2087740217696914e-11  9.6980147566452658e-12  4.3115218392707053e-12  2.7925603466568427e-12  2.5651863545300787e-12  2.5079522646766195e-01  2.2111901395333067e-01  1.5223917635529427e-01  8.2807524708248231e-02  3.6149057987182258e-02  1.2895159076054737e-02  3.8325160336806288e-03  9.6847577754005881e-04  2.1241158850060810e-04  4.1247581404408104e-05  7.2222164468009796e-06  1.1584760389690202e-06  1.7250231251919963e-07  2.4097916205255709e-08  3.1833142678678725e-09  4.0008696980537097e-10  4.8223853818005406e-11  5.4903486649391238e-12  2.3157823291406479e-13  -5.5536496399825522e-13  -8.7636757687361240e-13  2.5079526236194410e-01  2.2111903093302132e-01  1.5223916544669752e-01  8.2807489216291608e-02  3.6149015784720837e-02  1.2895127585818820e-02  3.8325009609240530e-03  9.6847288115960465e-04  2.1241410924280248e-04  4.1250950064685370e-05  7.2246559984085539e-06  1.1598254417593101e-06  1.7312002919740296e-07  2.4336119910174176e-08  3.2581380899505272e-09  4.1613283298841287e-10  4.7767220274235710e-11  2.6405328794811972e-12  -1.6265804698620979e-12  -1.2830261460461500e-12  -7.8788846506270279e-13  2.5079496162826614e-01  2.2111890280653662e-01  1.5223925515026202e-01  8.2807721127066525e-02  3.6149243365877180e-02  1.2895254630480427e-02  3.8325262007924323e-03  9.6844494989118182e-04  2.1237662611893937e-04  4.1223475863249950e-05  7.2094812603923012e-06  1.1530017028166709e-06  1.7059160873834216e-07  2.3606055396638240e-08  3.1410394714477369e-09  4.5324909812570193e-10  9.7371076829338245e-11  3.5684130740829916e-11  1.6753907442328639e-11  8.8253494829113313e-12  5.7026666404605057e-12  2.5079688721263121e-01  2.2111949060223712e-01  1.5223841691687837e-01  8.2806333370381541e-02  3.6148297097036951e-02  1.2895082944008686e-02  3.8328479832238794e-03  9.6886338294182922e-04  2.1268267372935847e-04  4.1389509314279925e-05  7.2809752483212307e-06  1.1772362348970173e-06  1.7616226551603584e-07  2.3529239020844831e-08  2.0812258083986623e-09  -3.6688620487199371e-10  -3.6636834485290606e-10  -1.9268771298341549e-10  -8.9627996538042898e-11  -4.3547975702602903e-11  -2.7218673837569413e-11  2.5079369059077300e-01  2.2112282565178859e-01  1.5224666173293519e-01  8.2812953095971115e-02  3.6149123675425540e-02  1.2891376715768503e-02  3.8282092639628056e-03  9.6553219365648046e-04  2.1095749089780725e-04  4.0714738819477579e-05  7.0973339742041896e-06  1.1643001966559655e-06  2.0077953424128981e-07  4.5456979645724170e-08  1.5089339169033990e-08  6.1322044541586023e-09  2.5698999606119596e-09  1.0520529067177881e-09  4.2585481329211799e-10  1.8695333140199525e-10  1.1287399179363189e-10  2.5066300656370644e-01  2.2102146996118813e-01  1.5218503672089057e-01  8.2806732466814317e-02  3.6188932800225657e-02  1.2940989389926496e-02  3.8622542884039343e-03  9.8121453730668894e-04  2.1560378451924365e-04  4.0985808651219365e-05  6.3460494496159844e-06  5.0419081153629605e-07  -1.8947215588840855e-07  -1.4851651518969239e-07  -7.1868555264198570e-08  -3.0211628359294422e-08  -1.1866482053118664e-08  -4.4796023342837165e-09  -1.6724499476275638e-09  -6.7910988901287696e-10  -3.9978616382761774e-10  2.5100377325034395e-01  2.2157290013626782e-01  1.5238264592737358e-01  8.2465597549853720e-02  3.5723213109818533e-02  1.2667176152964863e-02  3.7871666185340731e-03  9.9770315153064194e-04  2.4875592380724508e-04  6.5033325454063302e-05  1.9452939899961635e-05  6.6611747808264012e-06  2.4488645428318332e-06  9.1418934268315151e-07  3.3764504461364385e-07  1.2242549344946784e-07  4.3565099159578468e-08  1.5261541560860375e-08  5.3343936911505014e-09  2.0212778013989423e-09  1.1677947148636746e-09  2.4538414644159870e-01  2.2465936133916203e-01  1.5777223696582846e-01  8.4579738920528474e-02  3.4329879262741246e-02  1.0162931159163975e-02  1.8223591142109254e-03  -1.0963170608482842e-04  -2.6537580045194831e-04  -1.4659489055640455e-04  -6.1543607821011245e-05  -2.3072168087966972e-05  -8.2153023034896396e-06  -2.8581796482983206e-06  -9.8362176092886305e-07  -3.3627258367122134e-07  -1.1428879485489285e-07  -3.8615721398468651e-08  -1.3030416017447851e-08  -4.6262636193307204e-09  -2.5409284804937984e-09  </DataArray> 
</PointData> 
</Piece>
</UnstructuredGrid>
</VTKFile>