<?xml version="1.0"?>
<VTKFile type="UnstructuredGrid"  version="0.1"  >
<UnstructuredGrid>
<Piece  NumberOfPoints="441" NumberOfCells="800">
<Points>
<DataArray  type="Float64"  NumberOfComponents="3"  format="ascii">-2 -2 0  -1.8 -2 0  -1.6 -2 0  -1.4 -2 0  -1.2 -2 0  -1 -2 0  -0.8 -2 0  -0.6000000000000001 -2 0  -0.3999999999999999 -2 0  -0.2 -2 0  0 -2 0  0.2000000000000002 -2 0  0.3999999999999999 -2 0  0.6000000000000001 -2 0  0.7999999999999998 -2 0  1 -2 0  1.2 -2 0  1.4 -2 0  1.6 -2 0  1.8 -2 0  2 -2 0  -2 -1.8 0  -1.8 -1.8 0  -1.6 -1.8 0  -1.4 -1.8 0  -1.2 -1.8 0  -1 -1.8 0  -0.8 -1.8 0  -0.6000000000000001 -1.8 0  -0.3999999999999999 -1.8 0  -0.2 -1.8 0  0 -1.8 0  0.2000000000000002 -1.8 0  0.3999999999999999 -1.8 0  0.6000000000000001 -1.8 0  0.7999999999999998 -1.8 0  1 -1.8 0  1.2 -1.8 0  1.4 -1.8 0  1.6 -1.8 0  1.8 -1.8 0  2 -1.8 0  -2 -1.6 0  -1.8 -1.6 0  -1.6 -1.6 0  -1.4 -1.6 0  -1.2 -1.6 0  -1 -1.6 0  -0.8 -1.6 0  -0.6000000000000001 -1.6 0  -0.3999999999999999 -1.6 0  -0.2 -1.6 0  0 -1.6 0  0.2000000000000002 -1.6 0  0.3999999999999999 -1.6 0  0.6000000000000001 -1.6 0  0.7999999999999998 -1.6 0  1 -1.6 0  1.2 -1.6 0  1.4 -1.6 0  1.6 -1.6 0  1.8 -1.6 0  2 -1.6 0  -2 -1.4 0  -1.8 -1.4 0  -1.6 -1.4 0  -1.4 -1.4 0  -1.2 -1.4 0  -1 -1.4 0  -0.8 -1.4 0  -0.6000000000000001 -1.4 0  -0.3999999999999999 -1.4 0  -0.2 -1.4 0  0 -1.4 0  0.2000000000000002 -1.4 0  0.3999999999999999 -1.4 0  0.6000000000000001 -1.4 0  0.7999999999999998 -1.4 0  1 -1.4 0  1.2 -1.4 0  1.4 -1.4 0  1.6 -1.4 0  1.8 -1.4 0  2 -1.4 0  -2 -1.2 0  -1.8 -1.2 0  -1.6 -1.2 0  -1.4 -1.2 0  -1.2 -1.2 0  -1 -1.2 0  -0.8 -1.2 0  -0.6000000000000001 -1.2 0  -0.3999999999999999 -1.2 0  -0.2 -1.2 0  0 -1.2 0  0.2000000000000002 -1.2 0  0.3999999999999999 -1.2 0  0.6000000000000001 -1.2 0  0.7999999999999998 -1.2 0  1 -1.2 0  1.2 -1.2 0  1.4 -1.2 0  1.6 -1.2 0  1.8 -1.2 0  2 -1.2 0  -2 -1 0  -1.8 -1 0  -1.6 -1 0  -1.4 -1 0  -1.2 -1 0  -1 -1 0  -0.8 -1 0  -0.6000000000000001 -1 0  -0.3999999999999999 -1 0  -0.2 -1 0  0 -1 0  0.2000000000000002 -1 0  0.3999999999999999 -1 0  0.6000000000000001 -1 0  0.7999999999999998 -1 0  1 -1 0  1.2 -1 0  1.4 -1 0  1.6 -1 0  1.8 -1 0  2 -1 0  -2 -0.8 0  -1.8 -0.8 0  -1.6 -0.8 0  -1.4 -0.8 0  -1.2 -0.8 0  -1 -0.8 0  -0.8 -0.8 0  -0.6000000000000001 -0.8 0  -0.3999999999999999 -0.8 0  -0.2 -0.8 0  0 -0.8 0  0.2000000000000002 -0.8 0  0.3999999999999999 -0.8 0  0.6000000000000001 -0.8 0  0.7999999999999998 -0.8 0  1 -0.8 0  1.2 -0.8 0  1.4 -0.8 0  1.6 -0.8 0  1.8 -0.8 0  2 -0.8 0  -2 -0.6000000000000001 0  -1.8 -0.6000000000000001 0  -1.6 -0.6000000000000001 0  -1.4 -0.6000000000000001 0  -1.2 -0.6000000000000001 0  -1 -0.6000000000000001 0  -0.8 -0.6000000000000001 0  -0.6000000000000001 -0.6000000000000001 0  -0.3999999999999999 -0.6000000000000001 0  -0.2 -0.6000000000000001 0  0 -0.6000000000000001 0  0.2000000000000002 -0.6000000000000001 0  0.3999999999999999 -0.6000000000000001 0  0.6000000000000001 -0.6000000000000001 0  0.7999999999999998 -0.6000000000000001 0  1 -0.6000000000000001 0  1.2 -0.6000000000000001 0  1.4 -0.6000000000000001 0  1.6 -0.6000000000000001 0  1.8 -0.6000000000000001 0  2 -0.6000000000000001 0  -2 -0.3999999999999999 0  -1.8 -0.3999999999999999 0  -1.6 -0.3999999999999999 0  -1.4 -0.3999999999999999 0  -1.2 -0.3999999999999999 0  -1 -0.3999999999999999 0  -0.8 -0.3999999999999999 0  -0.6000000000000001 -0.3999999999999999 0  -0.3999999999999999 -0.3999999999999999 0  -0.2 -0.3999999999999999 0  0 -0.3999999999999999 0  0.2000000000000002 -0.3999999999999999 0  0.3999999999999999 -0.3999999999999999 0  0.6000000000000001 -0.3999999999999999 0  0.7999999999999998 -0.3999999999999999 0  1 -0.3999999999999999 0  1.2 -0.3999999999999999 0  1.4 -0.3999999999999999 0  1.6 -0.3999999999999999 0  1.8 -0.3999999999999999 0  2 -0.3999999999999999 0  -2 -0.2 0  -1.8 -0.2 0  -1.6 -0.2 0  -1.4 -0.2 0  -1.2 -0.2 0  -1 -0.2 0  -0.8 -0.2 0  -0.6000000000000001 -0.2 0  -0.3999999999999999 -0.2 0  -0.2 -0.2 0  0 -0.2 0  0.2000000000000002 -0.2 0  0.3999999999999999 -0.2 0  0.6000000000000001 -0.2 0  0.7999999999999998 -0.2 0  1 -0.2 0  1.2 -0.2 0  1.4 -0.2 0  1.6 -0.2 0  1.8 -0.2 0  2 -0.2 0  -2 0 0  -1.8 0 0  -1.6 0 0  -1.4 0 0  -1.2 0 0  -1 0 0  -0.8 0 0  -0.6000000000000001 0 0  -0.3999999999999999 0 0  -0.2 0 0  0 0 0  0.2000000000000002 0 0  0.3999999999999999 0 0  0.6000000000000001 0 0  0.7999999999999998 0 0  1 0 0  1.2 0 0  1.4 0 0  1.6 0 0  1.8 0 0  2 0 0  -2 0.2000000000000002 0  -1.8 0.2000000000000002 0  -1.6 0.2000000000000002 0  -1.4 0.2000000000000002 0  -1.2 0.2000000000000002 0  -1 0.2000000000000002 0  -0.8 0.2000000000000002 0  -0.6000000000000001 0.2000000000000002 0  -0.3999999999999999 0.2000000000000002 0  -0.2 0.2000000000000002 0  0 0.2000000000000002 0  0.2000000000000002 0.2000000000000002 0  0.3999999999999999 0.2000000000000002 0  0.6000000000000001 0.2000000000000002 0  0.7999999999999998 0.2000000000000002 0  1 0.2000000000000002 0  1.2 0.2000000000000002 0  1.4 0.2000000000000002 0  1.6 0.2000000000000002 0  1.8 0.2000000000000002 0  2 0.2000000000000002 0  -2 0.3999999999999999 0  -1.8 0.3999999999999999 0  -1.6 0.3999999999999999 0  -1.4 0.3999999999999999 0  -1.2 0.3999999999999999 0  -1 0.3999999999999999 0  -0.8 0.3999999999999999 0  -0.6000000000000001 0.3999999999999999 0  -0.3999999999999999 0.3999999999999999 0  -0.2 0.3999999999999999 0  0 0.3999999999999999 0  0.2000000000000002 0.3999999999999999 0  0.3999999999999999 0.3999999999999999 0  0.6000000000000001 0.3999999999999999 0  0.7999999999999998 0.3999999999999999 0  1 0.3999999999999999 0  1.2 0.3999999999999999 0  1.4 0.3999999999999999 0  1.6 0.3999999999999999 0  1.8 0.3999999999999999 0  2 0.3999999999999999 0  -2 0.6000000000000001 0  -1.8 0.6000000000000001 0  -1.6 0.6000000000000001 0  -1.4 0.6000000000000001 0  -1.2 0.6000000000000001 0  -1 0.6000000000000001 0  -0.8 0.6000000000000001 0  -0.6000000000000001 0.6000000000000001 0  -0.3999999999999999 0.6000000000000001 0  -0.2 0.6000000000000001 0  0 0.6000000000000001 0  0.2000000000000002 0.6000000000000001 0  0.3999999999999999 0.6000000000000001 0  0.6000000000000001 0.6000000000000001 0  0.7999999999999998 0.6000000000000001 0  1 0.6000000000000001 0  1.2 0.6000000000000001 0  1.4 0.6000000000000001 0  1.6 0.6000000000000001 0  1.8 0.6000000000000001 0  2 0.6000000000000001 0  -2 0.7999999999999998 0  -1.8 0.7999999999999998 0  -1.6 0.7999999999999998 0  -1.4 0.7999999999999998 0  -1.2 0.7999999999999998 0  -1 0.7999999999999998 0  -0.8 0.7999999999999998 0  -0.6000000000000001 0.7999999999999998 0  -0.3999999999999999 0.7999999999999998 0  -0.2 0.7999999999999998 0  0 0.7999999999999998 0  0.2000000000000002 0.7999999999999998 0  0.3999999999999999 0.7999999999999998 0  0.6000000000000001 0.7999999999999998 0  0.7999999999999998 0.7999999999999998 0  1 0.7999999999999998 0  1.2 0.7999999999999998 0  1.4 0.7999999999999998 0  1.6 0.7999999999999998 0  1.8 0.7999999999999998 0  2 0.7999999999999998 0  -2 1 0  -1.8 1 0  -1.6 1 0  -1.4 1 0  -1.2 1 0  -1 1 0  -0.8 1 0  -0.6000000000000001 1 0  -0.3999999999999999 1 0  -0.2 1 0  0 1 0  0.2000000000000002 1 0  0.3999999999999999 1 0  0.6000000000000001 1 0  0.7999999999999998 1 0  1 1 0  1.2 1 0  1.4 1 0  1.6 1 0  1.8 1 0  2 1 0  -2 1.2 0  -1.8 1.2 0  -1.6 1.2 0  -1.4 1.2 0  -1.2 1.2 0  -1 1.2 0  -0.8 1.2 0  -0.6000000000000001 1.2 0  -0.3999999999999999 1.2 0  -0.2 1.2 0  0 1.2 0  0.2000000000000002 1.2 0  0.3999999999999999 1.2 0  0.6000000000000001 1.2 0  0.7999999999999998 1.2 0  1 1.2 0  1.2 1.2 0  1.4 1.2 0  1.6 1.2 0  1.8 1.2 0  2 1.2 0  -2 1.4 0  -1.8 1.4 0  -1.6 1.4 0  -1.4 1.4 0  -1.2 1.4 0  -1 1.4 0  -0.8 1.4 0  -0.6000000000000001 1.4 0  -0.3999999999999999 1.4 0  -0.2 1.4 0  0 1.4 0  0.2000000000000002 1.4 0  0.3999999999999999 1.4 0  0.6000000000000001 1.4 0  0.7999999999999998 1.4 0  1 1.4 0  1.2 1.4 0  1.4 1.4 0  1.6 1.4 0  1.8 1.4 0  2 1.4 0  -2 1.6 0  -1.8 1.6 0  -1.6 1.6 0  -1.4 1.6 0  -1.2 1.6 0  -1 1.6 0  -0.8 1.6 0  -0.6000000000000001 1.6 0  -0.3999999999999999 1.6 0  -0.2 1.6 0  0 1.6 0  0.2000000000000002 1.6 0  0.3999999999999999 1.6 0  0.6000000000000001 1.6 0  0.7999999999999998 1.6 0  1 1.6 0  1.2 1.6 0  1.4 1.6 0  1.6 1.6 0  1.8 1.6 0  2 1.6 0  -2 1.8 0  -1.8 1.8 0  -1.6 1.8 0  -1.4 1.8 0  -1.2 1.8 0  -1 1.8 0  -0.8 1.8 0  -0.6000000000000001 1.8 0  -0.3999999999999999 1.8 0  -0.2 1.8 0  0 1.8 0  0.2000000000000002 1.8 0  0.3999999999999999 1.8 0  0.6000000000000001 1.8 0  0.7999999999999998 1.8 0  1 1.8 0  1.2 1.8 0  1.4 1.8 0  1.6 1.8 0  1.8 1.8 0  2 1.8 0  -2 2 0  -1.8 2 0  -1.6 2 0  -1.4 2 0  -1.2 2 0  -1 2 0  -0.8 2 0  -0.6000000000000001 2 0  -0.3999999999999999 2 0  -0.2 2 0  0 2 0  0.2000000000000002 2 0  0.3999999999999999 2 0  0.6000000000000001 2 0  0.7999999999999998 2 0  1 2 0  1.2 2 0  1.4 2 0  1.6 2 0  1.8 2 0  2 2 0  </DataArray>
</Points>
<Cells>
[...]
<PointData  Scalars="f_8"> 
<DataArray  type="Float64"  Name="f_8"  format="ascii">4.6847759055178451e-03  0.0000000000000000e+00  0.0000000000000000e+00  0.0000000000000000e+00  0.0000000000000000e+00  0.0000000000000000e+00  0.0000000000000000e+00  0.0000000000000000e+00  0.0000000000000000e+00  0.0000000000000000e+00  0.0000000000000000e+00  0.0000000000000000e+00  0.0000000000000000e+00  0.0000000000000000e+00  0.0000000000000000e+00  0.0000000000000000e+00  0.0000000000000000e+00  0.0000000000000000e+00  0.0000000000000000e+00  0.0000000000000000e+00  0.0000000000000000e+00  5.0000015057633108e-02  4.9619069884041668e-02  4.8993877770786155e-02  4.8108267493434512e-02  4.6952838226412712e-02  4.5525830719517907e-02  4.3830955411448123e-02  4.1875983359020381e-02  3.9671796861969109e-02  3.7231720375910375e-02  3.4571025940380876e-02  3.1706551244656503e-02  2.8656394582489114e-02  2.5439666402508745e-02  2.2076286192971438e-02  1.8586818639106158e-02  1.4992345992913497e-02  1.1314375499238270e-02  7.5747823641703245e-03  3.7957908989714232e-03  0.0000000000000000e+00  9.6667720355397890e-02  9.6313038069483867e-02  9.5343125439344562e-02  9.3773796567775292e-02  9.1620607268322746e-02  8.8900872396417530e-02  8.5634634726674680e-02  8.1845030517110909e-02  7.7558310545181350e-02  7.2803667338689482e-02  6.7612958365055667e-02  6.2020380261246753e-02  5.6062129049187011e-02  4.9776069098604769e-02  4.3201425696669717e-02  3.6378510434917959e-02  2.9348484124152224e-02  2.2153157988647663e-02  1.4834830094716889e-02  7.4361499999078540e-03  0.0000000000000000e+00  1.3945019217950788e-01  1.3897787629622768e-01  1.3762630392168690e-01  1.3540727555870921e-01  1.3233875891553679e-01  1.2844444922175688e-01  1.2375342860236159e-01  1.1829981865337140e-01  1.1212238944003321e-01  1.0526412177884288e-01  9.7771734980540106e-02  8.9695198079922087e-02  8.1087243497024272e-02  7.2002900376961068e-02  6.2499061736548157e-02  5.2634095651354268e-02  4.2467506437670624e-02  3.2059647399421250e-02  2.1471482460045904e-02  1.0764390124777663e-02  0.0000000000000000e+00  1.7674563171375315e-01  1.7616505733016996e-01  1.7447216309071156e-01  1.7168011771229344e-01  1.6781020005311126e-01  1.6289140150309245e-01  1.5695995211749231e-01  1.5005878095499225e-01  1.4223692184148876e-01  1.3354887921999994e-01  1.2405397182678408e-01  1.1381567356069808e-01  1.0290097085264419e-01  9.1379754221372747e-02  7.9324258790486962e-02  6.6808564660749414e-02  5.3908163518949878e-02  4.0699593057469785e-02  2.7260136007077777e-02  1.3667576163171210e-02  0.0000000000000000e+00  2.0773183911953924e-01  2.0706157200462541e-01  2.0508440402868744e-01  2.0181533887890241e-01  1.9727888691929077e-01  1.9150866803343874e-01  1.8454689017787895e-01  1.7644372517954593e-01  1.6725660523846037e-01  1.5704946514930923e-01  1.4589195603717819e-01  1.3385865611071249e-01  1.2102830242332049e-01  1.0748306490132668e-01  9.3307880070381891e-02  7.8589857202588959e-02  6.3417764295005299e-02  4.7881595692383448e-02  3.2072217615940979e-02  1.6081082682869154e-02  0.0000000000000000e+00  2.3218965353180471e-01  2.3144870473880219e-01  2.2924706831294933e-01  2.2560129258903960e-01  2.2053853872038465e-01  2.1409615483329464e-01  2.0632110758025329e-01  1.9726929380795666e-01  1.8700475882414561e-01  1.7559885019327634e-01  1.6312933702037227e-01  1.4967952424079833e-01  1.3533738953562530e-01  1.2019476723270661e-01  1.0434659910785295e-01  8.7890266615064022e-02  7.0925013052496419e-02  5.3551457852288174e-02  3.5871198925328057e-02  1.7986493150384239e-02  0.0000000000000000e+00  2.5036009434798218e-01  2.4956629469285996e-01  2.4719752316913698e-01  2.4327149682553514e-01  2.3781737150560062e-01  2.3087528872636401e-01  2.2249576845622004e-01  2.1273897160283817e-01  2.0167386042684057e-01  1.8937728801083986e-01  1.7593304920711564e-01  1.6143092511301899e-01  1.4596575111943663e-01  1.2963653506880055e-01  1.1254564725062871e-01  9.4798098130436576e-02  7.6500913183751865e-02  5.7762607359933542e-02  3.8692754916367318e-02  1.9401644023475384e-02  0.0000000000000000e+00  2.6274673430007561e-01  2.6191631690904499e-01  2.5943302835667564e-01  2.5531539414577270e-01  2.4959394260399959e-01  2.4231073211482967e-01  2.3351871656295314e-01  2.2328097372719979e-01  2.1166982604549889e-01  1.9876588631447331e-01  1.8465706231943657e-01  1.6943755406045460e-01  1.5320687518422457e-01  1.3606892658088832e-01  1.1813114507695122e-01  9.9503744041928521e-02  8.0299055877104827e-02  6.0630979158602959e-02  4.0614526069941370e-02  2.0365459082515410e-02  0.0000000000000000e+00  2.6990151967991810e-01  2.6904938984339377e-01  2.6649940262902205e-01  2.6227055860280918e-01  2.5639418731790847e-01  2.4891346313665474e-01  2.3988275478777418e-01  2.2936683395286442e-01  2.1743997301713444e-01  2.0418496537281738e-01  1.8969210316917234e-01  1.7405814709661735e-01  1.5738532070986980e-01  1.3978035806880321e-01  1.2135362832833758e-01  1.0221835463928229e-01  8.2489937690064574e-02  6.2285386824326806e-02  4.1722854329212244e-02  2.0921261616614315e-02  0.0000000000000000e+00  2.7223795797879208e-01  2.7137843699643316e-01  2.6880636753595899e-01  2.6454090643703793e-01  2.5861364700512357e-01  2.5106813141696910e-01  2.4195919528615201e-01  2.3135216984838775e-01  2.1932197212420532e-01  2.0595211671636321e-01  1.9133368443767895e-01  1.7556428267550017e-01  1.5874703031622237e-01  1.4098959630970259e-01  1.2240331577236278e-01  1.0310240121036360e-01  8.3203259352661041e-02  6.2823916621090922e-02  4.2083548852512531e-02  2.1102103943448827e-02  0.0000000000000000e+00  2.6990568429428385e-01  2.6905349835723485e-01  2.6650340329896322e-01  2.6227438739206432e-01  2.5639777182079471e-01  2.4891672763784409e-01  2.3988562607621511e-01  2.2936924744536349e-01  2.1744187871290044e-01  2.0418633316028806e-01  1.8969292704047358e-01  1.7405844789115116e-01  1.5738514710282564e-01  1.3977978563700094e-01  1.2135275665737151e-01  1.0221730257396916e-01  8.2488836965612836e-02  6.2284374439296221e-02  4.1722064124592721e-02  2.0920815600675435e-02  0.0000000000000000e+00  2.6274680675803541e-01  2.6191805594026196e-01  2.5943633139651090e-01  2.5532010108257241e-01  2.4959984525240697e-01  2.4231758628667144e-01  2.3352625588538034e-01  2.2328892423029365e-01  2.1167792048101558e-01  1.9877387717800324e-01  1.8466473262982339e-01  1.6944472509830041e-01  1.5321341059698315e-01  1.3607473251298130e-01  1.1813616626399499e-01  9.9507956100737080e-02  8.0302454308565210e-02  6.0633565839591973e-02  4.0616294225009640e-02  2.0366377880217064e-02  0.0000000000000000e+00  2.5034079153722555e-01  2.4955361508687982e-01  2.4719130602593220e-01  2.4327141983182110e-01  2.3782296935351377e-01  2.3088597620514936e-01  2.2251086655128169e-01  2.1275773492319092e-01  2.0169550422010765e-01  1.8940101307612209e-01  1.7595806317761140e-01  1.6145645884342610e-01  1.4599106926338737e-01  1.2966094034905212e-01  1.1256847838504951e-01  9.4818721852004129e-02  7.6518711252595059e-02  5.7776959879129001e-02  3.8703021601323440e-02  1.9407145311326673e-02  0.0000000000000000e+00  2.3213134243286512e-01  2.3140601613291847e-01  2.2921974453124785e-01  2.2558874052359609e-01  2.2053986382405313e-01  2.1411020164568534e-01  2.0634650431828960e-01  1.9730449841599856e-01  1.8704810389072310e-01  1.7564858430397384e-01  1.6318366041907867e-01  1.4973661710006175e-01  1.3539543167230159e-01  1.2025194872297514e-01  1.0440112192538686e-01  8.7940338101182861e-02  7.0968832686241351e-02  5.3587199377527484e-02  3.5896990367236141e-02  1.8000397574441804e-02  0.0000000000000000e+00  2.0761492323980835e-01  2.0697319711530712e-01  2.0502409702678634e-01  2.0178205955924236e-01  1.9727108842069047e-01  1.9152436451700391e-01  1.8458372789564942e-01  1.7649905320643958e-01  1.6732754243986814e-01  1.5713296038514321e-01  1.4598483913480326e-01  1.3395767776671114e-01  1.2113016191442781e-01  1.0758442528898721e-01  9.3405371450268129e-02  7.8680069445306172e-02  6.3497231598957871e-02  4.7946776064973523e-02  3.2119471047612133e-02  1.6106652209811785e-02  0.0000000000000000e+00  1.7655676248003369e-01  1.7602033978318984e-01  1.7437061226356096e-01  1.7161993819214375e-01  1.6778889299804134e-01  1.6290587451671762e-01  1.5700662592862055e-01  1.5013368831899432e-01  1.4233579536077032e-01  1.3366722571386178e-01  1.2418713157336947e-01  1.1395886334103322e-01  1.0304931037365218e-01  9.1528276255451693e-02  7.9467904270020429e-02  6.6942164993134601e-02  5.4026413495093364e-02  4.0797018838828671e-02  2.7331063688039628e-02  1.3706107177908820e-02  0.0000000000000000e+00  1.3919029954944651e-01  1.3877812102776904e-01  1.3748450918039054e-01  1.3532029869891524e-01  1.3230268996079278e-01  1.2845478814953312e-01  1.2380523156872703e-01  1.1838781367067788e-01  1.1224106492879568e-01  1.0540779130765078e-01  9.7934580502896773e-02  8.9871293016383025e-02  8.1270556465191546e-02  7.2187280346394822e-02  6.2678205874658874e-02  5.2801502086970910e-02  4.2616415554181608e-02  3.2182977035120561e-02  2.1561764481281900e-02  1.0813718120253075e-02  0.0000000000000000e+00  9.6362434253632570e-02  9.6080998973400319e-02  9.5179430293241107e-02  9.3672661272733854e-02  9.1575907538006540e-02  8.8906402052035552e-02  8.5684216399087423e-02  8.1932553388863336e-02  7.7677733010121416e-02  7.2949002214166794e-02  6.7778247360581342e-02  6.2199658732248801e-02  5.6249379365100070e-02  4.9965159958085467e-02  4.3386034739224782e-02  3.6552028198799193e-02  2.9503898723326809e-02  2.2282922034302821e-02  1.4930714942713251e-02  7.4890985292615222e-03  0.0000000000000000e+00  4.9716210461590596e-02  4.9415302711155608e-02  4.8857623082917807e-02  4.8027330538005314e-02  4.6918002726439999e-02  4.5529799273609312e-02  4.3867672390477216e-02  4.1940199066817729e-02  3.9758783899533433e-02  3.7337085037555812e-02  3.4690577077244697e-02  3.1836201120282799e-02  2.8792073637446319e-02  2.5577238172144266e-02  2.2211450760676568e-02  1.8714993311265013e-02  1.5108510283881578e-02  1.1412863520639721e-02  7.6489982864152038e-03  3.8378104620333709e-03  0.0000000000000000e+00  4.5684124821563461e-03  0.0000000000000000e+00  0.0000000000000000e+00  0.0000000000000000e+00  0.0000000000000000e+00  0.0000000000000000e+00  0.0000000000000000e+00  0.0000000000000000e+00  0.0000000000000000e+00  0.0000000000000000e+00  0.0000000000000000e+00  0.0000000000000000e+00  0.0000000000000000e+00  0.0000000000000000e+00  0.0000000000000000e+00  0.0000000000000000e+00  0.0000000000000000e+00  0.0000000000000000e+00  0.0000000000000000e+00  0.0000000000000000e+00  0.0000000000000000e+00  </DataArray> 
</PointData> 
</Piece>
</UnstructuredGrid>
</VTKFile>