<?xml version="1.0"?>
<VTKFile type="UnstructuredGrid"  version="0.1"  >
<UnstructuredGrid>
<Piece  NumberOfPoints="441" NumberOfCells="800">
<Points>
<DataArray  type="Float64"  NumberOfComponents="3"  format="ascii">-2 -2 0  -1.8 -2 0  -1.6 -2 0  -1.4 -2 0  -1.2 -2 0  -1 -2 0  -0.8 -2 0  -0.6000000000000001 -2 0  -0.3999999999999999 -2 0  -0.2 -2 0  0 -2 0  0.2000000000000002 -2 0  0.3999999999999999 -2 0  0.6000000000000001 -2 0  0.7999999999999998 -2 0  1 -2 0  1.2 -2 0  1.4 -2 0  1.6 -2 0  1.8 -2 0  2 -2 0  -2 -1.8 0  -1.8 -1.8 0  -1.6 -1.8 0  -1.4 -1.8 0  -1.2 -1.8 0  -1 -1.8 0  -0.8 -1.8 0  -0.6000000000000001 -1.8 0  -0.3999999999999999 -1.8 0  -0.2 -1.8 0  0 -1.8 0  0.2000000000000002 -1.8 0  0.3999999999999999 -1.8 0  0.6000000000000001 -1.8 0  0.7999999999999998 -1.8 0  1 -1.8 0  1.2 -1.8 0  1.4 -1.8 0  1.6 -1.8 0  1.8 -1.8 0  2 -1.8 0  -2 -1.6 0  -1.8 -1.6 0  -1.6 -1.6 0  -1.4 -1.6 0  -1.2 -1.6 0  -1 -1.6 0  -0.8 -1.6 0  -0.6000000000000001 -1.6 0  -0.3999999999999999 -1.6 0  -0.2 -1.6 0  0 -1.6 0  0.2000000000000002 -1.6 0  0.3999999999999999 -1.6 0  0.6000000000000001 -1.6 0  0.7999999999999998 -1.6 0  1 -1.6 0  1.2 -1.6 0  1.4 -1.6 0  1.6 -1.6 0  1.8 -1.6 0  2 -1.6 0  -2 -1.4 0  -1.8 -1.4 0  -1.6 -1.4 0  -1.4 -1.4 0  -1.2 -1.4 0  -1 -1.4 0  -0.8 -1.4 0  -0.6000000000000001 -1.4 0  -0.3999999999999999 -1.4 0  -0.2 -1.4 0  0 -1.4 0  0.2000000000000002 -1.4 0  0.3999999999999999 -1.4 0  0.6000000000000001 -1.4 0  0.7999999999999998 -1.4 0  1 -1.4 0  1.2 -1.4 0  1.4 -1.4 0  1.6 -1.4 0  1.8 -1.4 0  2 -1.4 0  -2 -1.2 0  -1.8 -1.2 0  -1.6 -1.2 0  -1.4 -1.2 0  -1.2 -1.2 0  -1 -1.2 0  -0.8 -1.2 0  -0.6000000000000001 -1.2 0  -0.3999999999999999 -1.2 0  -0.2 -1.2 0  0 -1.2 0  0.2000000000000002 -1.2 0  0.3999999999999999 -1.2 0  0.6000000000000001 -1.2 0  0.7999999999999998 -1.2 0  1 -1.2 0  1.2 -1.2 0  1.4 -1.2 0  1.6 -1.2 0  1.8 -1.2 0  2 -1.2 0  -2 -1 0  -1.8 -1 0  -1.6 -1 0  -1.4 -1 0  -1.2 -1 0  -1 -1 0  -0.8 -1 0  -0.6000000000000001 -1 0  -0.3999999999999999 -1 0  -0.2 -1 0  0 -1 0  0.2000000000000002 -1 0  0.3999999999999999 -1 0  0.6000000000000001 -1 0  0.7999999999999998 -1 0  1 -1 0  1.2 -1 0  1.4 -1 0  1.6 -1 0  1.8 -1 0  2 -1 0  -2 -0.8 0  -1.8 -0.8 0  -1.6 -0.8 0  -1.4 -0.8 0  -1.2 -0.8 0  -1 -0.8 0  -0.8 -0.8 0  -0.6000000000000001 -0.8 0  -0.3999999999999999 -0.8 0  -0.2 -0.8 0  0 -0.8 0  0.2000000000000002 -0.8 0  0.3999999999999999 -0.8 0  0.6000000000000001 -0.8 0  0.7999999999999998 -0.8 0  1 -0.8 0  1.2 -0.8 0  1.4 -0.8 0  1.6 -0.8 0  1.8 -0.8 0  2 -0.8 0  -2 -0.6000000000000001 0  -1.8 -0.6000000000000001 0  -1.6 -0.6000000000000001 0  -1.4 -0.6000000000000001 0  -1.2 -0.6000000000000001 0  -1 -0.6000000000000001 0  -0.8 -0.6000000000000001 0  -0.6000000000000001 -0.6000000000000001 0  -0.3999999999999999 -0.6000000000000001 0  -0.2 -0.6000000000000001 0  0 -0.6000000000000001 0  0.2000000000000002 -0.6000000000000001 0  0.3999999999999999 -0.6000000000000001 0  0.6000000000000001 -0.6000000000000001 0  0.7999999999999998 -0.6000000000000001 0  1 -0.6000000000000001 0  1.2 -0.6000000000000001 0  1.4 -0.6000000000000001 0  1.6 -0.6000000000000001 0  1.8 -0.6000000000000001 0  2 -0.6000000000000001 0  -2 -0.3999999999999999 0  -1.8 -0.3999999999999999 0  -1.6 -0.3999999999999999 0  -1.4 -0.3999999999999999 0  -1.2 -0.3999999999999999 0  -1 -0.3999999999999999 0  -0.8 -0.3999999999999999 0  -0.6000000000000001 -0.3999999999999999 0  -0.3999999999999999 -0.3999999999999999 0  -0.2 -0.3999999999999999 0  0 -0.3999999999999999 0  0.2000000000000002 -0.3999999999999999 0  0.3999999999999999 -0.3999999999999999 0  0.6000000000000001 -0.3999999999999999 0  0.7999999999999998 -0.3999999999999999 0  1 -0.3999999999999999 0  1.2 -0.3999999999999999 0  1.4 -0.3999999999999999 0  1.6 -0.3999999999999999 0  1.8 -0.3999999999999999 0  2 -0.3999999999999999 0  -2 -0.2 0  -1.8 -0.2 0  -1.6 -0.2 0  -1.4 -0.2 0  -1.2 -0.2 0  -1 -0.2 0  -0.8 -0.2 0  -0.6000000000000001 -0.2 0  -0.3999999999999999 -0.2 0  -0.2 -0.2 0  0 -0.2 0  0.2000000000000002 -0.2 0  0.3999999999999999 -0.2 0  0.6000000000000001 -0.2 0  0.7999999999999998 -0.2 0  1 -0.2 0  1.2 -0.2 0  1.4 -0.2 0  1.6 -0.2 0  1.8 -0.2 0  2 -0.2 0  -2 0 0  -1.8 0 0  -1.6 0 0  -1.4 0 0  -1.2 0 0  -1 0 0  -0.8 0 0  -0.6000000000000001 0 0  -0.3999999999999999 0 0  -0.2 0 0  0 0 0  0.2000000000000002 0 0  0.3999999999999999 0 0  0.6000000000000001 0 0  0.7999999999999998 0 0  1 0 0  1.2 0 0  1.4 0 0  1.6 0 0  1.8 0 0  2 0 0  -2 0.2000000000000002 0  -1.8 0.2000000000000002 0  -1.6 0.2000000000000002 0  -1.4 0.2000000000000002 0  -1.2 0.2000000000000002 0  -1 0.2000000000000002 0  -0.8 0.2000000000000002 0  -0.6000000000000001 0.2000000000000002 0  -0.3999999999999999 0.2000000000000002 0  -0.2 0.2000000000000002 0  0 0.2000000000000002 0  0.2000000000000002 0.2000000000000002 0  0.3999999999999999 0.2000000000000002 0  0.6000000000000001 0.2000000000000002 0  0.7999999999999998 0.2000000000000002 0  1 0.2000000000000002 0  1.2 0.2000000000000002 0  1.4 0.2000000000000002 0  1.6 0.2000000000000002 0  1.8 0.2000000000000002 0  2 0.2000000000000002 0  -2 0.3999999999999999 0  -1.8 0.3999999999999999 0  -1.6 0.3999999999999999 0  -1.4 0.3999999999999999 0  -1.2 0.3999999999999999 0  -1 0.3999999999999999 0  -0.8 0.3999999999999999 0  -0.6000000000000001 0.3999999999999999 0  -0.3999999999999999 0.3999999999999999 0  -0.2 0.3999999999999999 0  0 0.3999999999999999 0  0.2000000000000002 0.3999999999999999 0  0.3999999999999999 0.3999999999999999 0  0.6000000000000001 0.3999999999999999 0  0.7999999999999998 0.3999999999999999 0  1 0.3999999999999999 0  1.2 0.3999999999999999 0  1.4 0.3999999999999999 0  1.6 0.3999999999999999 0  1.8 0.3999999999999999 0  2 0.3999999999999999 0  -2 0.6000000000000001 0  -1.8 0.6000000000000001 0  -1.6 0.6000000000000001 0  -1.4 0.6000000000000001 0  -1.2 0.6000000000000001 0  -1 0.6000000000000001 0  -0.8 0.6000000000000001 0  -0.6000000000000001 0.6000000000000001 0  -0.3999999999999999 0.6000000000000001 0  -0.2 0.6000000000000001 0  0 0.6000000000000001 0  0.2000000000000002 0.6000000000000001 0  0.3999999999999999 0.6000000000000001 0  0.6000000000000001 0.6000000000000001 0  0.7999999999999998 0.6000000000000001 0  1 0.6000000000000001 0  1.2 0.6000000000000001 0  1.4 0.6000000000000001 0  1.6 0.6000000000000001 0  1.8 0.6000000000000001 0  2 0.6000000000000001 0  -2 0.7999999999999998 0  -1.8 0.7999999999999998 0  -1.6 0.7999999999999998 0  -1.4 0.7999999999999998 0  -1.2 0.7999999999999998 0  -1 0.7999999999999998 0  -0.8 0.7999999999999998 0  -0.6000000000000001 0.7999999999999998 0  -0.3999999999999999 0.7999999999999998 0  -0.2 0.7999999999999998 0  0 0.7999999999999998 0  0.2000000000000002 0.7999999999999998 0  0.3999999999999999 0.7999999999999998 0  0.6000000000000001 0.7999999999999998 0  0.7999999999999998 0.7999999999999998 0  1 0.7999999999999998 0  1.2 0.7999999999999998 0  1.4 0.7999999999999998 0  1.6 0.7999999999999998 0  1.8 0.7999999999999998 0  2 0.7999999999999998 0  -2 1 0  -1.8 1 0  -1.6 1 0  -1.4 1 0  -1.2 1 0  -1 1 0  -0.8 1 0  -0.6000000000000001 1 0  -0.3999999999999999 1 0  -0.2 1 0  0 1 0  0.2000000000000002 1 0  0.3999999999999999 1 0  0.6000000000000001 1 0  0.7999999999999998 1 0  1 1 0  1.2 1 0  1.4 1 0  1.6 1 0  1.8 1 0  2 1 0  -2 1.2 0  -1.8 1.2 0  -1.6 1.2 0  -1.4 1.2 0  -1.2 1.2 0  -1 1.2 0  -0.8 1.2 0  -0.6000000000000001 1.2 0  -0.3999999999999999 1.2 0  -0.2 1.2 0  0 1.2 0  0.2000000000000002 1.2 0  0.3999999999999999 1.2 0  0.6000000000000001 1.2 0  0.7999999999999998 1.2 0  1 1.2 0  1.2 1.2 0  1.4 1.2 0  1.6 1.2 0  1.8 1.2 0  2 1.2 0  -2 1.4 0  -1.8 1.4 0  -1.6 1.4 0  -1.4 1.4 0  -1.2 1.4 0  -1 1.4 0  -0.8 1.4 0  -0.6000000000000001 1.4 0  -0.3999999999999999 1.4 0  -0.2 1.4 0  0 1.4 0  0.2000000000000002 1.4 0  0.3999999999999999 1.4 0  0.6000000000000001 1.4 0  0.7999999999999998 1.4 0  1 1.4 0  1.2 1.4 0  1.4 1.4 0  1.6 1.4 0  1.8 1.4 0  2 1.4 0  -2 1.6 0  -1.8 1.6 0  -1.6 1.6 0  -1.4 1.6 0  -1.2 1.6 0  -1 1.6 0  -0.8 1.6 0  -0.6000000000000001 1.6 0  -0.3999999999999999 1.6 0  -0.2 1.6 0  0 1.6 0  0.2000000000000002 1.6 0  0.3999999999999999 1.6 0  0.6000000000000001 1.6 0  0.7999999999999998 1.6 0  1 1.6 0  1.2 1.6 0  1.4 1.6 0  1.6 1.6 0  1.8 1.6 0  2 1.6 0  -2 1.8 0  -1.8 1.8 0  -1.6 1.8 0  -1.4 1.8 0  -1.2 1.8 0  -1 1.8 0  -0.8 1.8 0  -0.6000000000000001 1.8 0  -0.3999999999999999 1.8 0  -0.2 1.8 0  0 1.8 0  0.2000000000000002 1.8 0  0.3999999999999999 1.8 0  0.6000000000000001 1.8 0  0.7999999999999998 1.8 0  1 1.8 0  1.2 1.8 0  1.4 1.8 0  1.6 1.8 0  1.8 1.8 0  2 1.8 0  -2 2 0  -1.8 2 0  -1.6 2 0  -1.4 2 0  -1.2 2 0  -1 2 0  -0.8 2 0  -0.6000000000000001 2 0  -0.3999999999999999 2 0  -0.2 2 0  0 2 0  0.2000000000000002 2 0  0.3999999999999999 2 0  0.6000000000000001 2 0  0.7999999999999998 2 0  1 2 0  1.2 2 0  1.4 2 0  1.6 2 0  1.8 2 0  2 2 0  </DataArray>
</Points>
<Cells>
[...]
<PointData  Scalars="f_8"> 
<DataArray  type="Float64"  Name="f_8"  format="ascii">4.0036715598398226e-01  3.9898865852047921e-01  3.9555799996210639e-01  3.9013526398069748e-01  3.8284323516422558e-01  3.7385899346737222e-01  3.6340602751179923e-01  3.5174629076677610e-01  3.3917199545805182e-01  3.2599715044993954e-01  3.1254896493161916e-01  2.9915929647918216e-01  2.8615634256204969e-01  2.7385677391244745e-01  2.6255849790235697e-01  2.5253423061995389e-01  2.4402605913762260e-01  2.3724120540338625e-01  2.3234928247333853e-01  2.2948149865921938e-01  2.2873257778974551e-01  3.9973800559068162e-01  3.9863682986370896e-01  3.9538618505236928e-01  3.9008487320705193e-01  3.8287766200733109e-01  3.7395410076073715e-01  3.6354474413791871e-01  3.5191555370128730e-01  3.3936102861405848e-01  3.2619649729463285e-01  3.1274993022802788e-01  2.9935358328610689e-01  2.8633573664785184e-01  2.7401274999752240e-01  2.6268160707502441e-01  2.5261307003355116e-01  2.4404550366496688e-01  2.3717935527027906e-01  2.3217217487563013e-01  2.2913390732636971e-01  2.2812193511397880e-01  3.9958560392832720e-01  3.9850509024468361e-01  3.9529276897554216e-01  3.9003438035546628e-01  3.8286823453356017e-01  3.7398077890457521e-01  3.6360114540190736e-01  3.5199470147824158e-01  3.3945575771380909e-01  3.2629965276124701e-01  3.1285446564529629e-01  2.9945260912549421e-01  2.8642254387023469e-01  2.7408082735817374e-01  2.6272467861607701e-01  2.5262520479514211e-01  2.4402140308182943e-01  2.3711502728180139e-01  2.3206640041861981e-01  2.2899127519694701e-01  2.2795891491604880e-01  3.9953585330191871e-01  3.9845921661386341e-01  3.9525728803715915e-01  3.9001338946236608e-01  3.8286348003074128e-01  3.7399206079523051e-01  3.6362677983795039e-01  3.5203193970605051e-01  3.3950113644092861e-01  3.2634928040726269e-01  3.1290425829384128e-01  2.9949849179849725e-01  2.8646063267787603e-01  2.7410760845592491e-01  2.6273720131513573e-01  2.5262130800470622e-01  2.4399999432597616e-01  2.3707642667301529e-01  2.3201273689103574e-01  2.2892685512151481e-01  2.2789032467982420e-01  3.9952120792023149e-01  3.9844577716540130e-01  3.9524733584737487e-01  3.9000865077372604e-01  3.8286494837057722e-01  3.7399995779098844e-01  3.6364061009597304e-01  3.5205060167159152e-01  3.3952306221920531e-01  3.2637258737528663e-01  3.1292690257692579e-01  2.9951841851453392e-01  2.8647592079815898e-01  2.7411660959439405e-01  2.6273867185633326e-01  2.5261453251942745e-01  2.4398489472697998e-01  2.3705364540815815e-01  2.3198367328226457e-01  2.2889362265147661e-01  2.2785558834825284e-01  3.9951943364711628e-01  3.9844442589065121e-01  3.9524721542222507e-01  3.9001039716185337e-01  3.8286894328861681e-01  3.7400628570048089e-01  3.6364905302750311e-01  3.5206066582168921e-01  3.3953402867226679e-01  3.2638357939486845e-01  3.1293696276267818e-01  2.9952659016307887e-01  2.8648132871536391e-01  2.7411853620817284e-01  2.6273662468584119e-01  2.5260829884784630e-01  2.4397457876779230e-01  2.3703968256330915e-01  2.3196681572471856e-01  2.2887489124280108e-01  2.2783618904618133e-01  3.9952169894718625e-01  3.9844683297456418e-01  3.9525002633272138e-01  3.9001381210813890e-01  3.8287306770506663e-01  3.7401110985362984e-01  3.6365444575047340e-01  3.5206638202137785e-01  3.3953972886901596e-01  3.2638885870573192e-01  3.1294138631911034e-01  2.9952973183021492e-01  2.8648281003553527e-01  2.7411806263847160e-01  2.6273401638748167e-01  2.5260351350302973e-01  2.4396772418041862e-01  2.3703101722015513e-01  2.3195673616759110e-01  2.2886390615422617e-01  2.2782488145531882e-01  3.9952453369986274e-01  3.9844970656379602e-01  3.9525300312937778e-01  3.9001693332661247e-01  3.8287633880055838e-01  3.7401449241515239e-01  3.6365785480336582e-01  3.5206968896629237e-01  3.3954276966321478e-01  3.2639144639582168e-01  3.1294332668306196e-01  2.9953084067680630e-01  2.8648293062461327e-01  2.7411708170583449e-01  2.6273187736720993e-01  2.5260022572827723e-01  2.4396336710951014e-01  2.3702573908253213e-01  2.3195074685759048e-01  2.2885746471331619e-01  2.2781827904503685e-01  3.9952681119634986e-01  3.9845198814922539e-01  3.9525528958147516e-01  3.9001921689402747e-01  3.8287859862608514e-01  3.7401669166527252e-01  3.6365993990415274e-01  3.5207159109472724e-01  3.3954440839059818e-01  3.2639273515472600e-01  3.1294417955053511e-01  2.9953117984486405e-01  2.8648269386792596e-01  2.7411622915452921e-01  2.6273039694568218e-01  2.5259813672327430e-01  2.4396072147621836e-01  2.3702262027861234e-01  2.3194726620248757e-01  2.2885375549032197e-01  2.2781448877793301e-01  3.9952840189038197e-01  3.9845357333710169e-01  3.9525685467069294e-01  3.9002074425190414e-01  3.8288006601819352e-01  3.7401807136944815e-01  3.6366119866449681e-01  3.5207269098232780e-01  3.3954530853464809e-01  3.2639339421103819e-01  3.1294455869381455e-01  2.9953124601338499e-01  2.8648242295846427e-01  2.7411560886282532e-01  2.6272942897242740e-01  2.5259683811490358e-01  2.4395912493950175e-01  2.3702077339278677e-01  2.3194522954596020e-01  2.2885159979325961e-01  2.2781229129899513e-01  3.9952955685536573e-01  3.9845472109665170e-01  3.9525797926508077e-01  3.9002182847660494e-01  3.8288109083775912e-01  3.7401901566089246e-01  3.6366203936851238e-01  3.5207340369299717e-01  3.3954586850724022e-01  3.2639377771868822e-01  3.1294474462244665e-01  2.9953121755415019e-01  2.8648216924083081e-01  2.7411512637043034e-01  2.6272872259763447e-01  2.5259592173522610e-01  2.4395802143713560e-01  2.3701951408411409e-01  2.3194385303712350e-01  2.2885015032650086e-01  2.2781081669810788e-01  3.9953065159756940e-01  3.9845580847521211e-01  3.9525904399571571e-01  3.9002285400470288e-01  3.8288205875248787e-01  3.7401990544356939e-01  3.6366282854977450e-01  3.5207406844559452e-01  3.3954638465086173e-01  3.2639412206562168e-01  3.1294489655291358e-01  2.9953116068154700e-01  2.8648189301224253e-01  2.7411462744765169e-01  2.6272800587822465e-01  2.5259500090037162e-01  2.4395691895085495e-01  2.3701826061336972e-01  2.3194248631088474e-01  2.2884871349953623e-01  2.2780935632801050e-01  3.9953209035861764e-01  3.9845724064060578e-01  3.9526045648041180e-01  3.9002423059336488e-01  3.8288337856762844e-01  3.7402114210984005e-01  3.6366395020208808e-01  3.5207503863097350e-01  3.3954716407378399e-01  3.2639467103502373e-01  3.1294517791444837e-01  2.9953114296697814e-01  2.8648155351209020e-01  2.7411395491416624e-01  2.6272700259234044e-01  2.5259368388589121e-01  2.4395532018788818e-01  2.3701642618599320e-01  2.3194047451488425e-01  2.2884659202755200e-01  2.2780719873308317e-01  3.9953421923349719e-01  3.9845937015952565e-01  3.9526258809972187e-01  3.9002635696912358e-01  3.8288547914606824e-01  3.7402318048511829e-01  3.6366587358990587e-01  3.5207677955729549e-01  3.3954864413567004e-01  3.2639580638062349e-01  3.1294588592737038e-01  2.9953134953414640e-01  2.8648120020534346e-01  2.7411300542195099e-01  2.6272544779477336e-01  2.5259154506944642e-01  2.4395265003982544e-01  2.3701330738707718e-01  2.3193701595295002e-01  2.2884292287049632e-01  2.2780346080846248e-01  3.9953708674085026e-01  3.9846227005596613e-01  3.9526558160754866e-01  3.9002948120974207e-01  3.8288873511811333e-01  3.7402652569409922e-01  3.6366922009481295e-01  3.5207999753075553e-01  3.3955157045047568e-01  3.2639825728307398e-01  3.1294767254840078e-01  2.9953229481291094e-01  2.8648115573753014e-01  2.7411186677687999e-01  2.6272316695688142e-01  2.5258813884509806e-01  2.4394820353202612e-01  2.3700797198627507e-01  2.3193100172727149e-01  2.2883648575547780e-01  2.2779688555906152e-01  3.9953982587536224e-01  3.9846514527930266e-01  3.9526884352433439e-01  3.9003331551121012e-01  3.8289323138799303e-01  3.7403165905862357e-01  3.6367484687982865e-01  3.5208586427831945e-01  3.3955733439936925e-01  3.2640351568741255e-01  3.1295199787392242e-01  2.9953527277790637e-01  2.8648242324082734e-01  2.7411114689783656e-01  2.6272029837939986e-01  2.5258309724874373e-01  2.4394111275298619e-01  2.3699910316880032e-01  2.3192075938694165e-01  2.2882538078629916e-01  2.2778549679609447e-01  3.9953925672698554e-01  3.9846500938516771e-01  3.9526992219762630e-01  3.9003620952720569e-01  3.8289828400148596e-01  3.7403891827862407e-01  3.6368406448331458e-01  3.5209652513573803e-01  3.3956870849502901e-01  3.2641472551740386e-01  3.1296209483582810e-01  2.9954331720971006e-01  2.8648756362800160e-01  2.7411269428922991e-01  2.6271779215671143e-01  2.5257635807160700e-01  2.4393027783804572e-01  2.3698463830604546e-01  2.3190344176657318e-01  2.2880624769990165e-01  2.2776575887746744e-01  3.9952675335940235e-01  3.9845377834082052e-01  3.9526218536966951e-01  3.9003361466845249e-01  3.8290174498638008e-01  3.7404858776911765e-01  3.6369939480951485e-01  3.5211638088528391e-01  3.3959150539649668e-01  3.2643857971036044e-01  3.1298497350635962e-01  2.9956318612064264e-01  2.8650252981262830e-01  2.7412114346686989e-01  2.6271852033691934e-01  2.5256869509746671e-01  2.4391419676094042e-01  2.3696083784885974e-01  2.3187337941820557e-01  2.2877208941269500e-01  2.2773020352123530e-01  3.9948006955987703e-01  3.9841118862700436e-01  3.9523002210631991e-01  3.9001579276874210e-01  3.8289987394603353e-01  3.7406238150971005e-01  3.6372712537136870e-01  3.5215528542636232e-01  3.3963812556179707e-01  3.2648903905944737e-01  3.1303520696879911e-01  2.9960913699098729e-01  2.8654032980712263e-01  2.7414729194124543e-01  2.6273008038195361e-01  2.5256352615350458e-01  2.4389124323669276e-01  2.3692048540114669e-01  2.3181786282345643e-01  2.2870586251534222e-01  2.2766000937662911e-01  3.9933155036104823e-01  3.9828381539663121e-01  3.9514064117742537e-01  3.8996872320133319e-01  3.8289322488941041e-01  3.7409126295087941e-01  3.6378525589257460e-01  3.5223578681399614e-01  3.3973391293227478e-01  3.2659301321190792e-01  3.1314035024581804e-01  2.9970856078830471e-01  2.8662729791247260e-01  2.7421523804744086e-01  2.6277264709340220e-01  2.5257467976915993e-01  2.4386557458344726e-01  2.3685391538046785e-01  2.3170917714635611e-01  2.2855988777803826e-01  2.2749396906218569e-01  3.9870972235205066e-01  3.9793506972881298e-01  3.9496956795662697e-01  3.8991786680895413e-01  3.8292667070291159e-01  3.7418530294307761e-01  3.6392308548243923e-01  3.5240450338987245e-01  3.3992282727427370e-01  3.2679270164094454e-01  3.1334210858016426e-01  2.9990404893532679e-01  2.8680822802320677e-01  2.7437297998915966e-01  2.6289760850873861e-01  2.5265525785532383e-01  2.4388635222679225e-01  2.3679254328069693e-01  2.3153096800269532e-01  2.2820840742940637e-01  2.2687458932569463e-01  </DataArray> 
</PointData> 
</Piece>
</UnstructuredGrid>
</VTKFile>