<?xml version="1.0"?>
<VTKFile type="UnstructuredGrid"  version="0.1"  >
<UnstructuredGrid>
<Piece  NumberOfPoints="441" NumberOfCells="800">
<Points>
<DataArray  type="Float64"  NumberOfComponents="3"  format="ascii">-2 -2 0  -1.8 -2 0  -1.6 -2 0  -1.4 -2 0  -1.2 -2 0  -1 -2 0  -0.8 -2 0  -0.6000000000000001 -2 0  -0.3999999999999999 -2 0  -0.2 -2 0  0 -2 0  0.2000000000000002 -2 0  0.3999999999999999 -2 0  0.6000000000000001 -2 0  0.7999999999999998 -2 0  1 -2 0  1.2 -2 0  1.4 -2 0  1.6 -2 0  1.8 -2 0  2 -2 0  -2 -1.8 0  -1.8 -1.8 0  -1.6 -1.8 0  -1.4 -1.8 0  -1.2 -1.8 0  -1 -1.8 0  -0.8 -1.8 0  -0.6000000000000001 -1.8 0  -0.3999999999999999 -1.8 0  -0.2 -1.8 0  0 -1.8 0  0.2000000000000002 -1.8 0  0.3999999999999999 -1.8 0  0.6000000000000001 -1.8 0  0.7999999999999998 -1.8 0  1 -1.8 0  1.2 -1.8 0  1.4 -1.8 0  1.6 -1.8 0  1.8 -1.8 0  2 -1.8 0  -2 -1.6 0  -1.8 -1.6 0  -1.6 -1.6 0  -1.4 -1.6 0  -1.2 -1.6 0  -1 -1.6 0  -0.8 -1.6 0  -0.6000000000000001 -1.6 0  -0.3999999999999999 -1.6 0  -0.2 -1.6 0  0 -1.6 0  0.2000000000000002 -1.6 0  0.3999999999999999 -1.6 0  0.6000000000000001 -1.6 0  0.7999999999999998 -1.6 0  1 -1.6 0  1.2 -1.6 0  1.4 -1.6 0  1.6 -1.6 0  1.8 -1.6 0  2 -1.6 0  -2 -1.4 0  -1.8 -1.4 0  -1.6 -1.4 0  -1.4 -1.4 0  -1.2 -1.4 0  -1 -1.4 0  -0.8 -1.4 0  -0.6000000000000001 -1.4 0  -0.3999999999999999 -1.4 0  -0.2 -1.4 0  0 -1.4 0  0.2000000000000002 -1.4 0  0.3999999999999999 -1.4 0  0.6000000000000001 -1.4 0  0.7999999999999998 -1.4 0  1 -1.4 0  1.2 -1.4 0  1.4 -1.4 0  1.6 -1.4 0  1.8 -1.4 0  2 -1.4 0  -2 -1.2 0  -1.8 -1.2 0  -1.6 -1.2 0  -1.4 -1.2 0  -1.2 -1.2 0  -1 -1.2 0  -0.8 -1.2 0  -0.6000000000000001 -1.2 0  -0.3999999999999999 -1.2 0  -0.2 -1.2 0  0 -1.2 0  0.2000000000000002 -1.2 0  0.3999999999999999 -1.2 0  0.6000000000000001 -1.2 0  0.7999999999999998 -1.2 0  1 -1.2 0  1.2 -1.2 0  1.4 -1.2 0  1.6 -1.2 0  1.8 -1.2 0  2 -1.2 0  -2 -1 0  -1.8 -1 0  -1.6 -1 0  -1.4 -1 0  -1.2 -1 0  -1 -1 0  -0.8 -1 0  -0.6000000000000001 -1 0  -0.3999999999999999 -1 0  -0.2 -1 0  0 -1 0  0.2000000000000002 -1 0  0.3999999999999999 -1 0  0.6000000000000001 -1 0  0.7999999999999998 -1 0  1 -1 0  1.2 -1 0  1.4 -1 0  1.6 -1 0  1.8 -1 0  2 -1 0  -2 -0.8 0  -1.8 -0.8 0  -1.6 -0.8 0  -1.4 -0.8 0  -1.2 -0.8 0  -1 -0.8 0  -0.8 -0.8 0  -0.6000000000000001 -0.8 0  -0.3999999999999999 -0.8 0  -0.2 -0.8 0  0 -0.8 0  0.2000000000000002 -0.8 0  0.3999999999999999 -0.8 0  0.6000000000000001 -0.8 0  0.7999999999999998 -0.8 0  1 -0.8 0  1.2 -0.8 0  1.4 -0.8 0  1.6 -0.8 0  1.8 -0.8 0  2 -0.8 0  -2 -0.6000000000000001 0  -1.8 -0.6000000000000001 0  -1.6 -0.6000000000000001 0  -1.4 -0.6000000000000001 0  -1.2 -0.6000000000000001 0  -1 -0.6000000000000001 0  -0.8 -0.6000000000000001 0  -0.6000000000000001 -0.6000000000000001 0  -0.3999999999999999 -0.6000000000000001 0  -0.2 -0.6000000000000001 0  0 -0.6000000000000001 0  0.2000000000000002 -0.6000000000000001 0  0.3999999999999999 -0.6000000000000001 0  0.6000000000000001 -0.6000000000000001 0  0.7999999999999998 -0.6000000000000001 0  1 -0.6000000000000001 0  1.2 -0.6000000000000001 0  1.4 -0.6000000000000001 0  1.6 -0.6000000000000001 0  1.8 -0.6000000000000001 0  2 -0.6000000000000001 0  -2 -0.3999999999999999 0  -1.8 -0.3999999999999999 0  -1.6 -0.3999999999999999 0  -1.4 -0.3999999999999999 0  -1.2 -0.3999999999999999 0  -1 -0.3999999999999999 0  -0.8 -0.3999999999999999 0  -0.6000000000000001 -0.3999999999999999 0  -0.3999999999999999 -0.3999999999999999 0  -0.2 -0.3999999999999999 0  0 -0.3999999999999999 0  0.2000000000000002 -0.3999999999999999 0  0.3999999999999999 -0.3999999999999999 0  0.6000000000000001 -0.3999999999999999 0  0.7999999999999998 -0.3999999999999999 0  1 -0.3999999999999999 0  1.2 -0.3999999999999999 0  1.4 -0.3999999999999999 0  1.6 -0.3999999999999999 0  1.8 -0.3999999999999999 0  2 -0.3999999999999999 0  -2 -0.2 0  -1.8 -0.2 0  -1.6 -0.2 0  -1.4 -0.2 0  -1.2 -0.2 0  -1 -0.2 0  -0.8 -0.2 0  -0.6000000000000001 -0.2 0  -0.3999999999999999 -0.2 0  -0.2 -0.2 0  0 -0.2 0  0.2000000000000002 -0.2 0  0.3999999999999999 -0.2 0  0.6000000000000001 -0.2 0  0.7999999999999998 -0.2 0  1 -0.2 0  1.2 -0.2 0  1.4 -0.2 0  1.6 -0.2 0  1.8 -0.2 0  2 -0.2 0  -2 0 0  -1.8 0 0  -1.6 0 0  -1.4 0 0  -1.2 0 0  -1 0 0  -0.8 0 0  -0.6000000000000001 0 0  -0.3999999999999999 0 0  -0.2 0 0  0 0 0  0.2000000000000002 0 0  0.3999999999999999 0 0  0.6000000000000001 0 0  0.7999999999999998 0 0  1 0 0  1.2 0 0  1.4 0 0  1.6 0 0  1.8 0 0  2 0 0  -2 0.2000000000000002 0  -1.8 0.2000000000000002 0  -1.6 0.2000000000000002 0  -1.4 0.2000000000000002 0  -1.2 0.2000000000000002 0  -1 0.2000000000000002 0  -0.8 0.2000000000000002 0  -0.6000000000000001 0.2000000000000002 0  -0.3999999999999999 0.2000000000000002 0  -0.2 0.2000000000000002 0  0 0.2000000000000002 0  0.2000000000000002 0.2000000000000002 0  0.3999999999999999 0.2000000000000002 0  0.6000000000000001 0.2000000000000002 0  0.7999999999999998 0.2000000000000002 0  1 0.2000000000000002 0  1.2 0.2000000000000002 0  1.4 0.2000000000000002 0  1.6 0.2000000000000002 0  1.8 0.2000000000000002 0  2 0.2000000000000002 0  -2 0.3999999999999999 0  -1.8 0.3999999999999999 0  -1.6 0.3999999999999999 0  -1.4 0.3999999999999999 0  -1.2 0.3999999999999999 0  -1 0.3999999999999999 0  -0.8 0.3999999999999999 0  -0.6000000000000001 0.3999999999999999 0  -0.3999999999999999 0.3999999999999999 0  -0.2 0.3999999999999999 0  0 0.3999999999999999 0  0.2000000000000002 0.3999999999999999 0  0.3999999999999999 0.3999999999999999 0  0.6000000000000001 0.3999999999999999 0  0.7999999999999998 0.3999999999999999 0  1 0.3999999999999999 0  1.2 0.3999999999999999 0  1.4 0.3999999999999999 0  1.6 0.3999999999999999 0  1.8 0.3999999999999999 0  2 0.3999999999999999 0  -2 0.6000000000000001 0  -1.8 0.6000000000000001 0  -1.6 0.6000000000000001 0  -1.4 0.6000000000000001 0  -1.2 0.6000000000000001 0  -1 0.6000000000000001 0  -0.8 0.6000000000000001 0  -0.6000000000000001 0.6000000000000001 0  -0.3999999999999999 0.6000000000000001 0  -0.2 0.6000000000000001 0  0 0.6000000000000001 0  0.2000000000000002 0.6000000000000001 0  0.3999999999999999 0.6000000000000001 0  0.6000000000000001 0.6000000000000001 0  0.7999999999999998 0.6000000000000001 0  1 0.6000000000000001 0  1.2 0.6000000000000001 0  1.4 0.6000000000000001 0  1.6 0.6000000000000001 0  1.8 0.6000000000000001 0  2 0.6000000000000001 0  -2 0.7999999999999998 0  -1.8 0.7999999999999998 0  -1.6 0.7999999999999998 0  -1.4 0.7999999999999998 0  -1.2 0.7999999999999998 0  -1 0.7999999999999998 0  -0.8 0.7999999999999998 0  -0.6000000000000001 0.7999999999999998 0  -0.3999999999999999 0.7999999999999998 0  -0.2 0.7999999999999998 0  0 0.7999999999999998 0  0.2000000000000002 0.7999999999999998 0  0.3999999999999999 0.7999999999999998 0  0.6000000000000001 0.7999999999999998 0  0.7999999999999998 0.7999999999999998 0  1 0.7999999999999998 0  1.2 0.7999999999999998 0  1.4 0.7999999999999998 0  1.6 0.7999999999999998 0  1.8 0.7999999999999998 0  2 0.7999999999999998 0  -2 1 0  -1.8 1 0  -1.6 1 0  -1.4 1 0  -1.2 1 0  -1 1 0  -0.8 1 0  -0.6000000000000001 1 0  -0.3999999999999999 1 0  -0.2 1 0  0 1 0  0.2000000000000002 1 0  0.3999999999999999 1 0  0.6000000000000001 1 0  0.7999999999999998 1 0  1 1 0  1.2 1 0  1.4 1 0  1.6 1 0  1.8 1 0  2 1 0  -2 1.2 0  -1.8 1.2 0  -1.6 1.2 0  -1.4 1.2 0  -1.2 1.2 0  -1 1.2 0  -0.8 1.2 0  -0.6000000000000001 1.2 0  -0.3999999999999999 1.2 0  -0.2 1.2 0  0 1.2 0  0.2000000000000002 1.2 0  0.3999999999999999 1.2 0  0.6000000000000001 1.2 0  0.7999999999999998 1.2 0  1 1.2 0  1.2 1.2 0  1.4 1.2 0  1.6 1.2 0  1.8 1.2 0  2 1.2 0  -2 1.4 0  -1.8 1.4 0  -1.6 1.4 0  -1.4 1.4 0  -1.2 1.4 0  -1 1.4 0  -0.8 1.4 0  -0.6000000000000001 1.4 0  -0.3999999999999999 1.4 0  -0.2 1.4 0  0 1.4 0  0.2000000000000002 1.4 0  0.3999999999999999 1.4 0  0.6000000000000001 1.4 0  0.7999999999999998 1.4 0  1 1.4 0  1.2 1.4 0  1.4 1.4 0  1.6 1.4 0  1.8 1.4 0  2 1.4 0  -2 1.6 0  -1.8 1.6 0  -1.6 1.6 0  -1.4 1.6 0  -1.2 1.6 0  -1 1.6 0  -0.8 1.6 0  -0.6000000000000001 1.6 0  -0.3999999999999999 1.6 0  -0.2 1.6 0  0 1.6 0  0.2000000000000002 1.6 0  0.3999999999999999 1.6 0  0.6000000000000001 1.6 0  0.7999999999999998 1.6 0  1 1.6 0  1.2 1.6 0  1.4 1.6 0  1.6 1.6 0  1.8 1.6 0  2 1.6 0  -2 1.8 0  -1.8 1.8 0  -1.6 1.8 0  -1.4 1.8 0  -1.2 1.8 0  -1 1.8 0  -0.8 1.8 0  -0.6000000000000001 1.8 0  -0.3999999999999999 1.8 0  -0.2 1.8 0  0 1.8 0  0.2000000000000002 1.8 0  0.3999999999999999 1.8 0  0.6000000000000001 1.8 0  0.7999999999999998 1.8 0  1 1.8 0  1.2 1.8 0  1.4 1.8 0  1.6 1.8 0  1.8 1.8 0  2 1.8 0  -2 2 0  -1.8 2 0  -1.6 2 0  -1.4 2 0  -1.2 2 0  -1 2 0  -0.8 2 0  -0.6000000000000001 2 0  -0.3999999999999999 2 0  -0.2 2 0  0 2 0  0.2000000000000002 2 0  0.3999999999999999 2 0  0.6000000000000001 2 0  0.7999999999999998 2 0  1 2 0  1.2 2 0  1.4 2 0  1.6 2 0  1.8 2 0  2 2 0  </DataArray>
</Points>
<Cells>
[...]
<PointData  Scalars="f_8"> 
<DataArray  type="Float64"  Name="f_8"  format="ascii">1.0885807143266019e-01  1.0570312758001589e-01  9.8199627229383579e-02  8.7290097252970877e-02  7.4268556719190568e-02  6.0513557598999033e-02  4.7247754723299826e-02  3.5375534259058837e-02  2.5419336447785719e-02  1.7544487648017863e-02  1.1642224247755047e-02  7.4349788397550009e-03  4.5743310890637443e-03  2.7143340258624048e-03  1.5552905503014563e-03  8.6178331123957120e-04  4.6284268447904027e-04  2.4247067902244770e-04  1.2697993275534331e-04  7.3273129025710094e-05  6.0238857336339964e-05  1.0784310478285546e-01  1.0536609462113172e-01  9.8326931034454654e-02  8.7687030492444071e-02  7.4763225070335046e-02  6.0971287647748951e-02  4.7582689099333518e-02  3.5552485432444957e-02  2.5445303527591702e-02  1.7453624720244899e-02  1.1479577455757763e-02  7.2433658638046822e-03  4.3865219399466266e-03  2.5504798252876898e-03  1.4241373906843688e-03  7.6378275173321990e-04  3.9356765920187131e-04  1.9534952086401432e-04  9.4923838123896009e-05  4.9102372536716304e-05  3.5853522880141885e-05  1.0782014464325280e-01  1.0538904453227296e-01  9.8426999706759402e-02  8.7845657987446674e-02  7.4938303638421661e-02  6.1118814352545035e-02  4.7671529358876148e-02  3.5570794635075086e-02  2.5399350233962361e-02  1.7361682986828702e-02  1.1364261206894117e-02  7.1251890750000033e-03  4.2801373464312524e-03  2.4636933493880509e-03  1.3589119704303439e-03  7.1816679460557503e-04  3.6365980531264080e-04  1.7678560054733045e-04  8.3728841420758015e-05  4.1983784382127034e-05  3.0120169575953085e-05  1.0787963964778817e-01  1.0545200021047918e-01  9.8495176248370800e-02  8.7913607678559977e-02  7.4995715725957854e-02  6.1155290733676572e-02  4.7680876418237275e-02  3.5553067679106848e-02  2.5360292742222752e-02  1.7310345971020883e-02  1.1310093636250998e-02  7.0757307234066485e-03  4.2398878414865874e-03  2.4341343353445266e-03  1.3392785385753993e-03  7.0647080695767392e-04  3.5758516091850996e-04  1.7427237395068433e-04  8.3232453897794491e-05  4.2488174362293189e-05  3.1002829861999023e-05  1.0790642461931194e-01  1.0547844348651421e-01  9.8519627472951274e-02  8.7933789062935461e-02  7.5009175765933925e-02  6.1160305043698460e-02  4.7677230323380358e-02  3.5542273487063764e-02  2.5345145551288504e-02  1.7294062323058843e-02  1.1295430766344327e-02  7.0644156657994001e-03  4.2324843901591141e-03  2.4302734948571754e-03  1.3380672252572107e-03  7.0689294994924858e-04  3.5878024300205609e-04  1.7566260870890149e-04  8.4530678701879859e-05  4.3640969301287823e-05  3.2115059592994778e-05  1.0791176342118854e-01  1.0548348963976713e-01  9.8523833256850935e-02  8.7936645812302663e-02  7.5010332982027556e-02  6.1159710948697411e-02  4.7675205092715681e-02  3.5539450239480783e-02  2.5342287538593994e-02  1.7291834079286188e-02  1.1294221927706615e-02  7.0642817907167902e-03  4.2332073630261527e-03  2.4314932237352624e-03  1.3394195890403715e-03  7.0810524289927404e-04  3.5970714386630528e-04  1.7627365573625139e-04  8.4873810064361603e-05  4.3805895087945933e-05  3.2211125053803454e-05  1.0791194159226407e-01  1.0548358214780210e-01  9.8523787327785564e-02  8.7936435460149037e-02  7.5009974634815055e-02  6.1159271756120341e-02  4.7674793708146784e-02  3.5539186937345153e-02  2.5342263246850488e-02  1.7292076773777018e-02  1.1294686728442143e-02  7.0648690558049619e-03  4.2337990609724579e-03  2.4319903990370154e-03  1.3397660594616327e-03  7.0829164530899515e-04  3.5975893692359671e-04  1.7623194861967939e-04  8.4777844266090596e-05  4.3682637340547234e-05  3.2073594331921733e-05  1.0791183564862143e-01  1.0548346480472924e-01  9.8523665779964215e-02  8.7936321041101551e-02  7.5009881996057695e-02  6.1159216373261459e-02  4.7674787517207426e-02  3.5539233175722162e-02  2.5342352896556748e-02  1.7292189084483895e-02  1.1294794585824256e-02  7.0649473509646517e-03  4.2338324457856851e-03  2.4319770886519531e-03  1.3397164362430013e-03  7.0822293092201590e-04  3.5968866263886169e-04  1.7617278861232222e-04  8.4735060646948666e-05  4.3653917314181439e-05  3.2050264459527207e-05  1.0791183137618372e-01  1.0548346137569702e-01  9.8523664540014017e-02  8.7936323279014739e-02  7.5009888500628466e-02  6.1159226938683142e-02  4.7674800554992069e-02  3.5539245678025411e-02  2.5342360975923756e-02  1.7292189096190749e-02  1.1294784484333777e-02  7.0649276739076861e-03  4.2338063892652707e-03  2.4319495557630962e-03  1.3396924649210988e-03  7.0820620817345879e-04  3.5968073551784381e-04  1.7617317680381045e-04  8.4742018772010215e-05  4.3665323397391829e-05  3.2064112940917655e-05  1.0791183427893052e-01  1.0548346464004923e-01  9.8523668006271187e-02  8.7936326695178771e-02  7.5009891520496780e-02  6.1159229149302240e-02  4.7674801546635816e-02  3.5539245160061537e-02  2.5342358917752095e-02  1.7292185839326676e-02  1.1294780752654993e-02  7.0649244317472293e-03  4.2338045659356194e-03  2.4319497358600184e-03  1.3396946818018578e-03  7.0820994096752396e-04  3.5968511642018116e-04  1.7617732219247256e-04  8.4745357075238480e-05  4.3667815052356208e-05  3.2066310309447748e-05  1.0791183416604572e-01  1.0548346449760822e-01  9.8523667820860250e-02  8.7936326449571153e-02  7.5009891202973994e-02  6.1159228765581448e-02  4.7674801131452511e-02  3.5539244783720073e-02  2.5342358681810603e-02  1.7292185856710426e-02  1.1294781112693457e-02  7.0649251594817487e-03  4.2338055930459815e-03  2.4319509008655779e-03  1.3396957661335768e-03  7.0821072939009013e-04  3.5968545617057164e-04  1.7617715537069511e-04  8.4744716795106777e-05  4.3666798569925300e-05  3.2065057634724249e-05  1.0791183360952340e-01  1.0548346402571648e-01  9.8523667453716893e-02  8.7936326204760148e-02  7.5009891093437961e-02  6.1159228794949824e-02  4.7674801289794032e-02  3.5539245045882045e-02  2.5342359009079735e-02  1.7292186201247433e-02  1.1294781423692848e-02  7.0649253902991226e-03  4.2338057088955596e-03  2.4319508862889467e-03  1.3396956302495037e-03  7.0821050600316235e-04  3.5968519643433901e-04  1.7617691316206859e-04  8.4744530153199892e-05  4.3666672873760628e-05  3.2064956807681625e-05  1.0791183551757261e-01  1.0548346551567285e-01  9.8523668249695537e-02  8.7936326226883535e-02  7.5009890430196333e-02  6.1159227656438893e-02  4.7674799946826447e-02  3.5539243764358512e-02  2.5342357993311391e-02  1.7292185559699139e-02  1.1294781164335188e-02  7.0649254428649822e-03  4.2338059626652663e-03  2.4319512286703356e-03  1.3396959743279752e-03  7.0821080206307212e-04  3.5968542938601231e-04  1.7617709186076413e-04  8.4744674896179484e-05  4.3666805024467740e-05  3.2065091558810567e-05  1.0791185194748304e-01  1.0548347957678729e-01  9.8523680161784699e-02  8.7936335897829940e-02  7.5009897483158186e-02  6.1159231653488189e-02  4.7674800669582663e-02  3.5539241414440190e-02  2.5342353228150583e-02  1.7292179358316315e-02  1.1294774589384514e-02  7.0649193992386415e-03  4.2338010382822998e-03  2.4319476543581387e-03  1.3396936863254998e-03  7.0820955797193093e-04  3.5968492497460801e-04  1.7617704422510379e-04  8.4744862246908856e-05  4.3667072409521935e-05  3.2065339600561701e-05  1.0791175044004543e-01  1.0548339140855680e-01  9.8523618493747189e-02  8.7936307085664009e-02  7.5009901210410457e-02  6.1159262091399179e-02  4.7674848397907060e-02  3.5539295770616389e-02  2.5342404624330215e-02  1.7292221031361861e-02  1.1294803377103185e-02  7.0649354665608781e-03  4.2338068415071137e-03  2.4319466351283036e-03  1.3396891528384422e-03  7.0820400880077222e-04  3.5967983893932899e-04  1.7617300665230383e-04  8.4741855034493410e-05  4.3664789416208652e-05  3.2063444805099411e-05  1.0791105644655831e-01  1.0548276620933972e-01  9.8523072539147494e-02  8.7935850401621121e-02  7.5009546825777387e-02  6.1159023827895849e-02  4.7674734096034871e-02  3.5539300210189133e-02  2.5342506798408278e-02  1.7292387697496213e-02  1.1294997135204368e-02  7.0651234988258448e-03  4.2339668232565389e-03  2.4320683459460304e-03  1.3397724497117192e-03  7.0825498497305989e-04  3.5970699641144435e-04  1.7618456473509494e-04  8.4744480649212909e-05  4.3663430958519317e-05  3.2061669160331655e-05  1.0791245447829684e-01  1.0548402087819671e-01  9.8523770007986386e-02  8.7935711358451463e-02  7.5008493154350306e-02  6.1157199396644164e-02  4.7672455026573995e-02  3.5536950441552147e-02  2.5340423907687371e-02  1.7290783888461125e-02  1.1293936851964826e-02  7.0645507736378016e-03  4.2337581170723325e-03  2.4320851741269842e-03  1.3398975976292313e-03  7.0840824396813269e-04  3.5984491122793453e-04  1.7629174246081082e-04  8.4822841796499418e-05  4.3722778050585506e-05  3.2112096513427526e-05  1.0793451035990444e-01  1.0550479088116799e-01  9.8541193791554779e-02  8.7947762422797643e-02  7.5013717839090832e-02  6.1155258199323617e-02  4.7664299288406382e-02  3.5524536767132540e-02  2.5326125849368761e-02  1.7276772493274924e-02  1.1281754438199744e-02  7.0549676214628782e-03  4.2268707975959786e-03  2.4275450778966996e-03  1.3371562292924172e-03  7.0690584269988120e-04  3.5911750172072058e-04  1.7600649231216842e-04  8.4766095133307788e-05  4.3763968557995418e-05  3.2158599329863386e-05  1.0800580644951328e-01  1.0557685330042467e-01  9.8612549456037063e-02  8.8011373319616490e-02  7.5060438077848166e-02  6.1178048098886245e-02  4.7660990214821702e-02  3.5498294443810988e-02  2.5283963517678126e-02  1.7227142901686660e-02  1.1232299711906802e-02  7.0111130205383057e-03  4.1914247774969002e-03  2.4010722811803622e-03  1.3187292761585006e-03  6.9488284832620135e-04  3.5173381489240590e-04  1.7171470742106043e-04  8.2354385535299979e-05  4.2320411983086387e-05  3.0947216746392536e-05  1.0802485993884800e-01  1.0564331617048137e-01  9.8746359121602303e-02  8.8188764923617977e-02  7.5239300957086919e-02  6.1318090889480634e-02  4.7736544688010113e-02  3.5502817785853201e-02  2.5227498560360877e-02  1.7129667421213021e-02  1.1116275546453076e-02  6.8957229973547066e-03  4.0895906339106008e-03  2.3190763503227554e-03  1.2575334612142794e-03  6.5210045053535910e-04  3.2346493994693998e-04  1.5384161866046955e-04  7.1215961775023760e-05  3.4864757189096095e-05  2.4509147327857418e-05  1.0703050938362202e-01  1.0531504296247027e-01  9.8883526422562484e-02  8.8603258796410636e-02  7.5758904024939108e-02  6.1802779887800335e-02  4.8093515596904494e-02  3.5691679545379183e-02  2.5253677338191310e-02  1.7029364541091042e-02  1.0938786537384834e-02  6.6884514672108245e-03  3.8887757610178036e-03  2.1465932324109065e-03  1.1222464999197381e-03  5.5355398616791819e-04  2.5596484177233100e-04  1.0971645896605690e-04  4.2783129773803357e-05  1.5097454518016727e-05  6.5298661040505473e-06  </DataArray> 
</PointData> 
</Piece>
</UnstructuredGrid>
</VTKFile>