<?xml version="1.0"?>
<VTKFile type="UnstructuredGrid"  version="0.1"  >
<UnstructuredGrid>
<Piece  NumberOfPoints="441" NumberOfCells="800">
<Points>
<DataArray  type="Float64"  NumberOfComponents="3"  format="ascii">-2 -2 0  -1.8 -2 0  -1.6 -2 0  -1.4 -2 0  -1.2 -2 0  -1 -2 0  -0.8 -2 0  -0.6000000000000001 -2 0  -0.3999999999999999 -2 0  -0.2 -2 0  0 -2 0  0.2000000000000002 -2 0  0.3999999999999999 -2 0  0.6000000000000001 -2 0  0.7999999999999998 -2 0  1 -2 0  1.2 -2 0  1.4 -2 0  1.6 -2 0  1.8 -2 0  2 -2 0  -2 -1.8 0  -1.8 -1.8 0  -1.6 -1.8 0  -1.4 -1.8 0  -1.2 -1.8 0  -1 -1.8 0  -0.8 -1.8 0  -0.6000000000000001 -1.8 0  -0.3999999999999999 -1.8 0  -0.2 -1.8 0  0 -1.8 0  0.2000000000000002 -1.8 0  0.3999999999999999 -1.8 0  0.6000000000000001 -1.8 0  0.7999999999999998 -1.8 0  1 -1.8 0  1.2 -1.8 0  1.4 -1.8 0  1.6 -1.8 0  1.8 -1.8 0  2 -1.8 0  -2 -1.6 0  -1.8 -1.6 0  -1.6 -1.6 0  -1.4 -1.6 0  -1.2 -1.6 0  -1 -1.6 0  -0.8 -1.6 0  -0.6000000000000001 -1.6 0  -0.3999999999999999 -1.6 0  -0.2 -1.6 0  0 -1.6 0  0.2000000000000002 -1.6 0  0.3999999999999999 -1.6 0  0.6000000000000001 -1.6 0  0.7999999999999998 -1.6 0  1 -1.6 0  1.2 -1.6 0  1.4 -1.6 0  1.6 -1.6 0  1.8 -1.6 0  2 -1.6 0  -2 -1.4 0  -1.8 -1.4 0  -1.6 -1.4 0  -1.4 -1.4 0  -1.2 -1.4 0  -1 -1.4 0  -0.8 -1.4 0  -0.6000000000000001 -1.4 0  -0.3999999999999999 -1.4 0  -0.2 -1.4 0  0 -1.4 0  0.2000000000000002 -1.4 0  0.3999999999999999 -1.4 0  0.6000000000000001 -1.4 0  0.7999999999999998 -1.4 0  1 -1.4 0  1.2 -1.4 0  1.4 -1.4 0  1.6 -1.4 0  1.8 -1.4 0  2 -1.4 0  -2 -1.2 0  -1.8 -1.2 0  -1.6 -1.2 0  -1.4 -1.2 0  -1.2 -1.2 0  -1 -1.2 0  -0.8 -1.2 0  -0.6000000000000001 -1.2 0  -0.3999999999999999 -1.2 0  -0.2 -1.2 0  0 -1.2 0  0.2000000000000002 -1.2 0  0.3999999999999999 -1.2 0  0.6000000000000001 -1.2 0  0.7999999999999998 -1.2 0  1 -1.2 0  1.2 -1.2 0  1.4 -1.2 0  1.6 -1.2 0  1.8 -1.2 0  2 -1.2 0  -2 -1 0  -1.8 -1 0  -1.6 -1 0  -1.4 -1 0  -1.2 -1 0  -1 -1 0  -0.8 -1 0  -0.6000000000000001 -1 0  -0.3999999999999999 -1 0  -0.2 -1 0  0 -1 0  0.2000000000000002 -1 0  0.3999999999999999 -1 0  0.6000000000000001 -1 0  0.7999999999999998 -1 0  1 -1 0  1.2 -1 0  1.4 -1 0  1.6 -1 0  1.8 -1 0  2 -1 0  -2 -0.8 0  -1.8 -0.8 0  -1.6 -0.8 0  -1.4 -0.8 0  -1.2 -0.8 0  -1 -0.8 0  -0.8 -0.8 0  -0.6000000000000001 -0.8 0  -0.3999999999999999 -0.8 0  -0.2 -0.8 0  0 -0.8 0  0.2000000000000002 -0.8 0  0.3999999999999999 -0.8 0  0.6000000000000001 -0.8 0  0.7999999999999998 -0.8 0  1 -0.8 0  1.2 -0.8 0  1.4 -0.8 0  1.6 -0.8 0  1.8 -0.8 0  2 -0.8 0  -2 -0.6000000000000001 0  -1.8 -0.6000000000000001 0  -1.6 -0.6000000000000001 0  -1.4 -0.6000000000000001 0  -1.2 -0.6000000000000001 0  -1 -0.6000000000000001 0  -0.8 -0.6000000000000001 0  -0.6000000000000001 -0.6000000000000001 0  -0.3999999999999999 -0.6000000000000001 0  -0.2 -0.6000000000000001 0  0 -0.6000000000000001 0  0.2000000000000002 -0.6000000000000001 0  0.3999999999999999 -0.6000000000000001 0  0.6000000000000001 -0.6000000000000001 0  0.7999999999999998 -0.6000000000000001 0  1 -0.6000000000000001 0  1.2 -0.6000000000000001 0  1.4 -0.6000000000000001 0  1.6 -0.6000000000000001 0  1.8 -0.6000000000000001 0  2 -0.6000000000000001 0  -2 -0.3999999999999999 0  -1.8 -0.3999999999999999 0  -1.6 -0.3999999999999999 0  -1.4 -0.3999999999999999 0  -1.2 -0.3999999999999999 0  -1 -0.3999999999999999 0  -0.8 -0.3999999999999999 0  -0.6000000000000001 -0.3999999999999999 0  -0.3999999999999999 -0.3999999999999999 0  -0.2 -0.3999999999999999 0  0 -0.3999999999999999 0  0.2000000000000002 -0.3999999999999999 0  0.3999999999999999 -0.3999999999999999 0  0.6000000000000001 -0.3999999999999999 0  0.7999999999999998 -0.3999999999999999 0  1 -0.3999999999999999 0  1.2 -0.3999999999999999 0  1.4 -0.3999999999999999 0  1.6 -0.3999999999999999 0  1.8 -0.3999999999999999 0  2 -0.3999999999999999 0  -2 -0.2 0  -1.8 -0.2 0  -1.6 -0.2 0  -1.4 -0.2 0  -1.2 -0.2 0  -1 -0.2 0  -0.8 -0.2 0  -0.6000000000000001 -0.2 0  -0.3999999999999999 -0.2 0  -0.2 -0.2 0  0 -0.2 0  0.2000000000000002 -0.2 0  0.3999999999999999 -0.2 0  0.6000000000000001 -0.2 0  0.7999999999999998 -0.2 0  1 -0.2 0  1.2 -0.2 0  1.4 -0.2 0  1.6 -0.2 0  1.8 -0.2 0  2 -0.2 0  -2 0 0  -1.8 0 0  -1.6 0 0  -1.4 0 0  -1.2 0 0  -1 0 0  -0.8 0 0  -0.6000000000000001 0 0  -0.3999999999999999 0 0  -0.2 0 0  0 0 0  0.2000000000000002 0 0  0.3999999999999999 0 0  0.6000000000000001 0 0  0.7999999999999998 0 0  1 0 0  1.2 0 0  1.4 0 0  1.6 0 0  1.8 0 0  2 0 0  -2 0.2000000000000002 0  -1.8 0.2000000000000002 0  -1.6 0.2000000000000002 0  -1.4 0.2000000000000002 0  -1.2 0.2000000000000002 0  -1 0.2000000000000002 0  -0.8 0.2000000000000002 0  -0.6000000000000001 0.2000000000000002 0  -0.3999999999999999 0.2000000000000002 0  -0.2 0.2000000000000002 0  0 0.2000000000000002 0  0.2000000000000002 0.2000000000000002 0  0.3999999999999999 0.2000000000000002 0  0.6000000000000001 0.2000000000000002 0  0.7999999999999998 0.2000000000000002 0  1 0.2000000000000002 0  1.2 0.2000000000000002 0  1.4 0.2000000000000002 0  1.6 0.2000000000000002 0  1.8 0.2000000000000002 0  2 0.2000000000000002 0  -2 0.3999999999999999 0  -1.8 0.3999999999999999 0  -1.6 0.3999999999999999 0  -1.4 0.3999999999999999 0  -1.2 0.3999999999999999 0  -1 0.3999999999999999 0  -0.8 0.3999999999999999 0  -0.6000000000000001 0.3999999999999999 0  -0.3999999999999999 0.3999999999999999 0  -0.2 0.3999999999999999 0  0 0.3999999999999999 0  0.2000000000000002 0.3999999999999999 0  0.3999999999999999 0.3999999999999999 0  0.6000000000000001 0.3999999999999999 0  0.7999999999999998 0.3999999999999999 0  1 0.3999999999999999 0  1.2 0.3999999999999999 0  1.4 0.3999999999999999 0  1.6 0.3999999999999999 0  1.8 0.3999999999999999 0  2 0.3999999999999999 0  -2 0.6000000000000001 0  -1.8 0.6000000000000001 0  -1.6 0.6000000000000001 0  -1.4 0.6000000000000001 0  -1.2 0.6000000000000001 0  -1 0.6000000000000001 0  -0.8 0.6000000000000001 0  -0.6000000000000001 0.6000000000000001 0  -0.3999999999999999 0.6000000000000001 0  -0.2 0.6000000000000001 0  0 0.6000000000000001 0  0.2000000000000002 0.6000000000000001 0  0.3999999999999999 0.6000000000000001 0  0.6000000000000001 0.6000000000000001 0  0.7999999999999998 0.6000000000000001 0  1 0.6000000000000001 0  1.2 0.6000000000000001 0  1.4 0.6000000000000001 0  1.6 0.6000000000000001 0  1.8 0.6000000000000001 0  2 0.6000000000000001 0  -2 0.7999999999999998 0  -1.8 0.7999999999999998 0  -1.6 0.7999999999999998 0  -1.4 0.7999999999999998 0  -1.2 0.7999999999999998 0  -1 0.7999999999999998 0  -0.8 0.7999999999999998 0  -0.6000000000000001 0.7999999999999998 0  -0.3999999999999999 0.7999999999999998 0  -0.2 0.7999999999999998 0  0 0.7999999999999998 0  0.2000000000000002 0.7999999999999998 0  0.3999999999999999 0.7999999999999998 0  0.6000000000000001 0.7999999999999998 0  0.7999999999999998 0.7999999999999998 0  1 0.7999999999999998 0  1.2 0.7999999999999998 0  1.4 0.7999999999999998 0  1.6 0.7999999999999998 0  1.8 0.7999999999999998 0  2 0.7999999999999998 0  -2 1 0  -1.8 1 0  -1.6 1 0  -1.4 1 0  -1.2 1 0  -1 1 0  -0.8 1 0  -0.6000000000000001 1 0  -0.3999999999999999 1 0  -0.2 1 0  0 1 0  0.2000000000000002 1 0  0.3999999999999999 1 0  0.6000000000000001 1 0  0.7999999999999998 1 0  1 1 0  1.2 1 0  1.4 1 0  1.6 1 0  1.8 1 0  2 1 0  -2 1.2 0  -1.8 1.2 0  -1.6 1.2 0  -1.4 1.2 0  -1.2 1.2 0  -1 1.2 0  -0.8 1.2 0  -0.6000000000000001 1.2 0  -0.3999999999999999 1.2 0  -0.2 1.2 0  0 1.2 0  0.2000000000000002 1.2 0  0.3999999999999999 1.2 0  0.6000000000000001 1.2 0  0.7999999999999998 1.2 0  1 1.2 0  1.2 1.2 0  1.4 1.2 0  1.6 1.2 0  1.8 1.2 0  2 1.2 0  -2 1.4 0  -1.8 1.4 0  -1.6 1.4 0  -1.4 1.4 0  -1.2 1.4 0  -1 1.4 0  -0.8 1.4 0  -0.6000000000000001 1.4 0  -0.3999999999999999 1.4 0  -0.2 1.4 0  0 1.4 0  0.2000000000000002 1.4 0  0.3999999999999999 1.4 0  0.6000000000000001 1.4 0  0.7999999999999998 1.4 0  1 1.4 0  1.2 1.4 0  1.4 1.4 0  1.6 1.4 0  1.8 1.4 0  2 1.4 0  -2 1.6 0  -1.8 1.6 0  -1.6 1.6 0  -1.4 1.6 0  -1.2 1.6 0  -1 1.6 0  -0.8 1.6 0  -0.6000000000000001 1.6 0  -0.3999999999999999 1.6 0  -0.2 1.6 0  0 1.6 0  0.2000000000000002 1.6 0  0.3999999999999999 1.6 0  0.6000000000000001 1.6 0  0.7999999999999998 1.6 0  1 1.6 0  1.2 1.6 0  1.4 1.6 0  1.6 1.6 0  1.8 1.6 0  2 1.6 0  -2 1.8 0  -1.8 1.8 0  -1.6 1.8 0  -1.4 1.8 0  -1.2 1.8 0  -1 1.8 0  -0.8 1.8 0  -0.6000000000000001 1.8 0  -0.3999999999999999 1.8 0  -0.2 1.8 0  0 1.8 0  0.2000000000000002 1.8 0  0.3999999999999999 1.8 0  0.6000000000000001 1.8 0  0.7999999999999998 1.8 0  1 1.8 0  1.2 1.8 0  1.4 1.8 0  1.6 1.8 0  1.8 1.8 0  2 1.8 0  -2 2 0  -1.8 2 0  -1.6 2 0  -1.4 2 0  -1.2 2 0  -1 2 0  -0.8 2 0  -0.6000000000000001 2 0  -0.3999999999999999 2 0  -0.2 2 0  0 2 0  0.2000000000000002 2 0  0.3999999999999999 2 0  0.6000000000000001 2 0  0.7999999999999998 2 0  1 2 0  1.2 2 0  1.4 2 0  1.6 2 0  1.8 2 0  2 2 0  </DataArray>
</Points>
<Cells>
[...]
<PointData  Scalars="f_8"> 
<DataArray  type="Float64"  Name="f_8"  format="ascii">1.8042062737386431e-02  0.0000000000000000e+00  0.0000000000000000e+00  0.0000000000000000e+00  0.0000000000000000e+00  0.0000000000000000e+00  0.0000000000000000e+00  0.0000000000000000e+00  0.0000000000000000e+00  0.0000000000000000e+00  0.0000000000000000e+00  0.0000000000000000e+00  0.0000000000000000e+00  0.0000000000000000e+00  0.0000000000000000e+00  0.0000000000000000e+00  0.0000000000000000e+00  0.0000000000000000e+00  0.0000000000000000e+00  0.0000000000000000e+00  0.0000000000000000e+00  1.8252560704398046e-01  1.8033186489114847e-01  1.7619280851701810e-01  1.7019272450176259e-01  1.6247358240205839e-01  1.5325840235018678e-01  1.4282592359516996e-01  1.3148656438407536e-01  1.1956000879836720e-01  1.0735513127174924e-01  9.5153013684713211e-02  8.3193645601056340e-02  7.1666624105547333e-02  6.0705865118031707e-02  5.0388062850927763e-02  4.0734427774244665e-02  3.1715115423917931e-02  2.3255729773578638e-02  1.5245332214788758e-02  7.5454871560608396e-03  0.0000000000000000e+00  3.3056649292795626e-01  3.2826315072102313e-01  3.2186971496832556e-01  3.1166639188649231e-01  2.9804667565117055e-01  2.8150179587978458e-01  2.6259497214642175e-01  2.4192971572217958e-01  2.2011607538339800e-01  1.9773810316050658e-01  1.7532512738971764e-01  1.5332866135208720e-01  1.3210599522914138e-01  1.1191078651589052e-01  9.2890345960827264e-02  7.5088860850305306e-02  5.8455527147882116e-02  4.2856471169625460e-02  2.8089400694526621e-02  1.3900088188146129e-02  0.0000000000000000e+00  4.3502783372399589e-01  4.3227717398259952e-01  4.2416863202439220e-01  4.1101805592922480e-01  3.9331890121936802e-01  3.7170873814404326e-01  3.4692826957109724e-01  3.1977585256348123e-01  2.9106102662823063e-01  2.6156049908204748e-01  2.3197955588121366e-01  2.0292109806070299e-01  1.7486359699954721e-01  1.4814835461407386e-01  1.2297566235953608e-01  9.9408855711094132e-02  7.7384897984236006e-02  5.6729998225533831e-02  3.7178837788420779e-02  1.8396190405180684e-02  0.0000000000000000e+00  4.9713666848196197e-01  4.9408954894906837e-01  4.8493454993160889e-01  4.7001985891744963e-01  4.4989835379512583e-01  4.2529049331032559e-01  3.9703760041050423e-01  3.6604958444555974e-01  3.3325137771789903e-01  2.9953214218599000e-01  2.6570068573568562e-01  2.3244962576919326e-01  2.0032979346131824e-01  1.6973533131707544e-01  1.4089902653071015e-01  1.1389673371806559e-01  8.8659318682794030e-02  6.4990400625853151e-02  4.2588245552751140e-02  2.1070402857121747e-02  0.0000000000000000e+00  5.2860636259400295e-01  5.2537664719120292e-01  5.1566359985302224e-01  4.9983357868884676e-01  4.7847028262455399e-01  4.5233587610905990e-01  4.2232170069091179e-01  3.8939289195068572e-01  3.5453148607447282e-01  3.1868236807346761e-01  2.8270575384389462e-01  2.4733893419834505e-01  2.1316889320338639e-01  1.8061630114988633e-01  1.4993040898317048e-01  1.2119363247850708e-01  9.4334159967734532e-02  6.9144748278665333e-02  4.5305947912977575e-02  2.2412251061361185e-02  0.0000000000000000e+00  5.4231983337633105e-01  5.3898443030353638e-01  5.2900525629868844e-01  5.1275730503366457e-01  4.9083813649270580e-01  4.6402819293628295e-01  4.3324041705360972e-01  3.9946358205641075e-01  3.6370402846518607e-01  3.2693027261349983e-01  2.9002428035074540e-01  2.5374221327129010e-01  2.1868631110327835e-01  1.8528843264560255e-01  1.5380477742116333e-01  1.2432055031243811e-01  9.6762862597496807e-02  7.0919986688459571e-02  4.6465157991306835e-02  2.2983374878668236e-02  0.0000000000000000e+00  5.4750828776961769e-01  5.4411801140928495e-01  5.3402483634013675e-01  5.1760741512709330e-01  4.9546881449421420e-01  4.6839651267563209e-01  4.3731160733814778e-01  4.0321167626672255e-01  3.6711202308696500e-01  3.2998981112448561e-01  2.9273491310828287e-01  2.5611031093711722e-01  2.2072372657520559e-01  1.8701101381943022e-01  1.5523083112617164e-01  1.2546934823757422e-01  9.7653265355247126e-02  7.1569244922585221e-02  4.6887931976075055e-02  2.3190998221179572e-02  0.0000000000000000e+00  5.4922862763760860e-01  5.4581350114858374e-01  5.3567652030792889e-01  5.1919772700752020e-01  4.9698213732880148e-01  4.6981962859256066e-01  4.3863401176482836e-01  4.0442574188157338e-01  3.6821301025554731e-01  3.3097573286694010e-01  2.9360627259014710e-01  2.5686973712695077e-01  2.2137553849913885e-01  1.8756074561219949e-01  1.5568474906838869e-01  1.2583398771967394e-01  9.7935010937798217e-02  7.1773971135611667e-02  4.7020716912734691e-02  2.3255916874271573e-02  0.0000000000000000e+00  5.4972902281573266e-01  5.4630403134076844e-01  5.3615190858405926e-01  5.1965316994980093e-01  4.9741344904108992e-01  4.7022335086299111e-01  4.3900748475954565e-01  4.0476713272063436e-01  3.6852129990901522e-01  3.3125066471545012e-01  2.9384826844931500e-01  2.5707978833182815e-01  2.2155508066750346e-01  1.8771152593921298e-01  1.5580869452890381e-01  1.2593308151801827e-01  9.8011183138019292e-02  7.1829007825164548e-02  4.7056190675512879e-02  2.3273139909086027e-02  0.0000000000000000e+00  5.4983602412846200e-01  5.4640713589175116e-01  5.3625009738996587e-01  5.1974557407581612e-01  4.9749937138954836e-01  4.7030227922460033e-01  4.3907909574566112e-01  4.0483128684530051e-01  3.6857802868877909e-01  3.3130015115377492e-01  2.9389082263222577e-01  2.5711582005912997e-01  2.2158507107445008e-01  1.8773599993950824e-01  1.5582819565879530e-01  1.2594815042011465e-01  9.8022340533273203e-02  7.1836742421283586e-02  4.7060952082639079e-02  2.3275336302639105e-02  0.0000000000000000e+00  5.4975298686522434e-01  5.4632130632840525e-01  5.3616256365067527e-01  5.1965746790108969e-01  4.9741182642249437e-01  4.7021639089028217e-01  4.3899588528011685e-01  4.0475167165233061e-01  3.6850280066751678e-01  3.3122996400847465e-01  2.9382618851328868e-01  2.5705711525289371e-01  2.2153254990854990e-01  1.8768981563350384e-01  1.5578842654028130e-01  1.2591482974146323e-01  9.7995488047073365e-02  7.1816395879526609e-02  4.7047196890476470e-02  2.3268331661027722e-02  0.0000000000000000e+00  5.4930418700696704e-01  5.4586808585325630e-01  5.3571035844762238e-01  5.1921163953119986e-01  4.9697747799117120e-01  4.6979820271887157e-01  4.3859798006302725e-01  4.0437751638804520e-01  3.6815514977825337e-01  3.3091084501079443e-01  2.9353692867072689e-01  2.5679840509056517e-01  2.2130453748275972e-01  1.8749222411863198e-01  1.5562068702063461e-01  1.2577622100072194e-01  9.7885275504520322e-02  7.1733962481429339e-02  4.6992159585750141e-02  2.3240637963221029e-02  0.0000000000000000e+00  5.4769613154295382e-01  5.4425429612343768e-01  5.3411014139805324e-01  5.1764370442201380e-01  4.9545930436229374e-01  4.6834549342334075e-01  4.3722423058868265e-01  4.0309372251034431e-01  3.6696966496176470e-01  3.2982938801855066e-01  2.9256273165242480e-01  2.5593248391604428e-01  2.2054605986748788e-01  1.8683894739165430e-01  1.5506943610740817e-01  1.2532337795743884e-01  9.7527254205620958e-02  7.1467645236932331e-02  4.6815276014345972e-02  2.3152069971420108e-02  0.0000000000000000e+00  5.4269926039637828e-01  5.3926201950503627e-01  5.2918211418606276e-01  5.1283698634893005e-01  4.9082645566709637e-01  4.6393296426678343e-01  4.3307113490656302e-01  3.9923105728246022e-01  3.6342000169366850e-01  3.2660702849569695e-01  2.8967428848496718e-01  2.5337782098983941e-01  2.1831951032307709e-01  1.8493071767372882e-01  1.5346710333662586e-01  1.2401339290896481e-01  9.6496371604036263e-02  7.0704214884343475e-02  4.6310340699970656e-02  2.2900227902554193e-02  0.0000000000000000e+00  5.2919745250167260e-01  5.2581678281552013e-01  5.1595399176228629e-01  4.9997810763944628e-01  4.7847549908046777e-01  4.5221095465696054e-01  4.2207832002509110e-01  3.8904502270650221e-01  3.5409508502627407e-01  3.1817499458670767e-01  2.8214613972749675e-01  2.4674654867643347e-01  2.1256354895346377e-01  1.8001784456604064e-01  1.4935852831801602e-01  1.2066780245618948e-01  9.3873722681101807e-02  6.8769109983384286e-02  4.5034852231826031e-02  2.2266073629658038e-02  0.0000000000000000e+00  4.9775412052512036e-01  4.9457226628536471e-01  4.8528136220769091e-01  4.7022907690164623e-01  4.4996874838337381e-01  4.2522238430904957e-01  3.9683387486137078e-01  3.6571650303581377e-01  3.3279908153353766e-01  2.9897482854192192e-01  2.6505647330002091e-01  2.3174017009054806e-01  1.9957974034290085e-01  1.6897170506568066e-01  1.4015064275251415e-01  1.1319370391174335e-01  8.8032680155836415e-02  6.4471865493525141e-02  4.2210023009936662e-02  2.0865016160507371e-02  0.0000000000000000e+00  4.3520123477710704e-01  4.3248235328003881e-01  4.2439480675947877e-01  4.1124487703154361e-01  3.9352007539719769e-01  3.7185592985024390e-01  3.4699475447009959e-01  3.1973959755575915e-01  2.9090700903279310e-01  2.6128218621051424e-01  2.3157955926244270e-01  2.0241109390127718e-01  1.7426366076078190e-01  1.4748588725203232e-01  1.2228408580350091e-01  9.8726226469181277e-02  7.6752535447932910e-02  5.6191157048802114e-02  3.6777383157261888e-02  1.8175174337548509e-02  0.0000000000000000e+00  3.2977988175953293e-01  3.2783662333101415e-01  3.2176590438688074e-01  3.1182556047606341e-01  2.9839723548933961e-01  2.8196843828617912e-01  2.6310505540987467e-01  2.4241828452572781e-01  2.2052961255150455e-01  1.9803702747735932e-01  1.7548506833306574e-01  1.5334060585114750e-01  1.3197547310001428e-01  1.1165631327778670e-01  9.2541358788201064e-02  7.4683359919652123e-02  5.8037573513216117e-02  4.2473603127958406e-02  2.7789927633219687e-02  1.3730121160718253e-02  0.0000000000000000e+00  1.8085414196177482e-01  1.7935695001408947e-01  1.7579958651863664e-01  1.7024374138490550e-01  1.6284933405332230e-01  1.5385284953725412e-01  1.4354526509407689e-01  1.3224972448052635e-01  1.2029977156801906e-01  1.0801921060148131e-01  9.5704630126305812e-02  8.3611406917025219e-02  7.1943679809654548e-02  6.0848425149337082e-02  5.0413435663065061e-02  4.0668745664567206e-02  3.1590881142531543e-02  2.3109248321317302e-02  1.5113997522026962e-02  7.4647875950310943e-03  0.0000000000000000e+00  1.6943952146035317e-02  0.0000000000000000e+00  0.0000000000000000e+00  0.0000000000000000e+00  0.0000000000000000e+00  0.0000000000000000e+00  0.0000000000000000e+00  0.0000000000000000e+00  0.0000000000000000e+00  0.0000000000000000e+00  0.0000000000000000e+00  0.0000000000000000e+00  0.0000000000000000e+00  0.0000000000000000e+00  0.0000000000000000e+00  0.0000000000000000e+00  0.0000000000000000e+00  0.0000000000000000e+00  0.0000000000000000e+00  0.0000000000000000e+00  0.0000000000000000e+00  </DataArray> 
</PointData> 
</Piece>
</UnstructuredGrid>
</VTKFile>