<?xml version="1.0"?>
<VTKFile type="UnstructuredGrid"  version="0.1"  >
<UnstructuredGrid>
<Piece  NumberOfPoints="441" NumberOfCells="800">
<Points>
<DataArray  type="Float64"  NumberOfComponents="3"  format="ascii">-2 -2 0  -1.8 -2 0  -1.6 -2 0  -1.4 -2 0  -1.2 -2 0  -1 -2 0  -0.8 -2 0  -0.6000000000000001 -2 0  -0.3999999999999999 -2 0  -0.2 -2 0  0 -2 0  0.2000000000000002 -2 0  0.3999999999999999 -2 0  0.6000000000000001 -2 0  0.7999999999999998 -2 0  1 -2 0  1.2 -2 0  1.4 -2 0  1.6 -2 0  1.8 -2 0  2 -2 0  -2 -1.8 0  -1.8 -1.8 0  -1.6 -1.8 0  -1.4 -1.8 0  -1.2 -1.8 0  -1 -1.8 0  -0.8 -1.8 0  -0.6000000000000001 -1.8 0  -0.3999999999999999 -1.8 0  -0.2 -1.8 0  0 -1.8 0  0.2000000000000002 -1.8 0  0.3999999999999999 -1.8 0  0.6000000000000001 -1.8 0  0.7999999999999998 -1.8 0  1 -1.8 0  1.2 -1.8 0  1.4 -1.8 0  1.6 -1.8 0  1.8 -1.8 0  2 -1.8 0  -2 -1.6 0  -1.8 -1.6 0  -1.6 -1.6 0  -1.4 -1.6 0  -1.2 -1.6 0  -1 -1.6 0  -0.8 -1.6 0  -0.6000000000000001 -1.6 0  -0.3999999999999999 -1.6 0  -0.2 -1.6 0  0 -1.6 0  0.2000000000000002 -1.6 0  0.3999999999999999 -1.6 0  0.6000000000000001 -1.6 0  0.7999999999999998 -1.6 0  1 -1.6 0  1.2 -1.6 0  1.4 -1.6 0  1.6 -1.6 0  1.8 -1.6 0  2 -1.6 0  -2 -1.4 0  -1.8 -1.4 0  -1.6 -1.4 0  -1.4 -1.4 0  -1.2 -1.4 0  -1 -1.4 0  -0.8 -1.4 0  -0.6000000000000001 -1.4 0  -0.3999999999999999 -1.4 0  -0.2 -1.4 0  0 -1.4 0  0.2000000000000002 -1.4 0  0.3999999999999999 -1.4 0  0.6000000000000001 -1.4 0  0.7999999999999998 -1.4 0  1 -1.4 0  1.2 -1.4 0  1.4 -1.4 0  1.6 -1.4 0  1.8 -1.4 0  2 -1.4 0  -2 -1.2 0  -1.8 -1.2 0  -1.6 -1.2 0  -1.4 -1.2 0  -1.2 -1.2 0  -1 -1.2 0  -0.8 -1.2 0  -0.6000000000000001 -1.2 0  -0.3999999999999999 -1.2 0  -0.2 -1.2 0  0 -1.2 0  0.2000000000000002 -1.2 0  0.3999999999999999 -1.2 0  0.6000000000000001 -1.2 0  0.7999999999999998 -1.2 0  1 -1.2 0  1.2 -1.2 0  1.4 -1.2 0  1.6 -1.2 0  1.8 -1.2 0  2 -1.2 0  -2 -1 0  -1.8 -1 0  -1.6 -1 0  -1.4 -1 0  -1.2 -1 0  -1 -1 0  -0.8 -1 0  -0.6000000000000001 -1 0  -0.3999999999999999 -1 0  -0.2 -1 0  0 -1 0  0.2000000000000002 -1 0  0.3999999999999999 -1 0  0.6000000000000001 -1 0  0.7999999999999998 -1 0  1 -1 0  1.2 -1 0  1.4 -1 0  1.6 -1 0  1.8 -1 0  2 -1 0  -2 -0.8 0  -1.8 -0.8 0  -1.6 -0.8 0  -1.4 -0.8 0  -1.2 -0.8 0  -1 -0.8 0  -0.8 -0.8 0  -0.6000000000000001 -0.8 0  -0.3999999999999999 -0.8 0  -0.2 -0.8 0  0 -0.8 0  0.2000000000000002 -0.8 0  0.3999999999999999 -0.8 0  0.6000000000000001 -0.8 0  0.7999999999999998 -0.8 0  1 -0.8 0  1.2 -0.8 0  1.4 -0.8 0  1.6 -0.8 0  1.8 -0.8 0  2 -0.8 0  -2 -0.6000000000000001 0  -1.8 -0.6000000000000001 0  -1.6 -0.6000000000000001 0  -1.4 -0.6000000000000001 0  -1.2 -0.6000000000000001 0  -1 -0.6000000000000001 0  -0.8 -0.6000000000000001 0  -0.6000000000000001 -0.6000000000000001 0  -0.3999999999999999 -0.6000000000000001 0  -0.2 -0.6000000000000001 0  0 -0.6000000000000001 0  0.2000000000000002 -0.6000000000000001 0  0.3999999999999999 -0.6000000000000001 0  0.6000000000000001 -0.6000000000000001 0  0.7999999999999998 -0.6000000000000001 0  1 -0.6000000000000001 0  1.2 -0.6000000000000001 0  1.4 -0.6000000000000001 0  1.6 -0.6000000000000001 0  1.8 -0.6000000000000001 0  2 -0.6000000000000001 0  -2 -0.3999999999999999 0  -1.8 -0.3999999999999999 0  -1.6 -0.3999999999999999 0  -1.4 -0.3999999999999999 0  -1.2 -0.3999999999999999 0  -1 -0.3999999999999999 0  -0.8 -0.3999999999999999 0  -0.6000000000000001 -0.3999999999999999 0  -0.3999999999999999 -0.3999999999999999 0  -0.2 -0.3999999999999999 0  0 -0.3999999999999999 0  0.2000000000000002 -0.3999999999999999 0  0.3999999999999999 -0.3999999999999999 0  0.6000000000000001 -0.3999999999999999 0  0.7999999999999998 -0.3999999999999999 0  1 -0.3999999999999999 0  1.2 -0.3999999999999999 0  1.4 -0.3999999999999999 0  1.6 -0.3999999999999999 0  1.8 -0.3999999999999999 0  2 -0.3999999999999999 0  -2 -0.2 0  -1.8 -0.2 0  -1.6 -0.2 0  -1.4 -0.2 0  -1.2 -0.2 0  -1 -0.2 0  -0.8 -0.2 0  -0.6000000000000001 -0.2 0  -0.3999999999999999 -0.2 0  -0.2 -0.2 0  0 -0.2 0  0.2000000000000002 -0.2 0  0.3999999999999999 -0.2 0  0.6000000000000001 -0.2 0  0.7999999999999998 -0.2 0  1 -0.2 0  1.2 -0.2 0  1.4 -0.2 0  1.6 -0.2 0  1.8 -0.2 0  2 -0.2 0  -2 0 0  -1.8 0 0  -1.6 0 0  -1.4 0 0  -1.2 0 0  -1 0 0  -0.8 0 0  -0.6000000000000001 0 0  -0.3999999999999999 0 0  -0.2 0 0  0 0 0  0.2000000000000002 0 0  0.3999999999999999 0 0  0.6000000000000001 0 0  0.7999999999999998 0 0  1 0 0  1.2 0 0  1.4 0 0  1.6 0 0  1.8 0 0  2 0 0  -2 0.2000000000000002 0  -1.8 0.2000000000000002 0  -1.6 0.2000000000000002 0  -1.4 0.2000000000000002 0  -1.2 0.2000000000000002 0  -1 0.2000000000000002 0  -0.8 0.2000000000000002 0  -0.6000000000000001 0.2000000000000002 0  -0.3999999999999999 0.2000000000000002 0  -0.2 0.2000000000000002 0  0 0.2000000000000002 0  0.2000000000000002 0.2000000000000002 0  0.3999999999999999 0.2000000000000002 0  0.6000000000000001 0.2000000000000002 0  0.7999999999999998 0.2000000000000002 0  1 0.2000000000000002 0  1.2 0.2000000000000002 0  1.4 0.2000000000000002 0  1.6 0.2000000000000002 0  1.8 0.2000000000000002 0  2 0.2000000000000002 0  -2 0.3999999999999999 0  -1.8 0.3999999999999999 0  -1.6 0.3999999999999999 0  -1.4 0.3999999999999999 0  -1.2 0.3999999999999999 0  -1 0.3999999999999999 0  -0.8 0.3999999999999999 0  -0.6000000000000001 0.3999999999999999 0  -0.3999999999999999 0.3999999999999999 0  -0.2 0.3999999999999999 0  0 0.3999999999999999 0  0.2000000000000002 0.3999999999999999 0  0.3999999999999999 0.3999999999999999 0  0.6000000000000001 0.3999999999999999 0  0.7999999999999998 0.3999999999999999 0  1 0.3999999999999999 0  1.2 0.3999999999999999 0  1.4 0.3999999999999999 0  1.6 0.3999999999999999 0  1.8 0.3999999999999999 0  2 0.3999999999999999 0  -2 0.6000000000000001 0  -1.8 0.6000000000000001 0  -1.6 0.6000000000000001 0  -1.4 0.6000000000000001 0  -1.2 0.6000000000000001 0  -1 0.6000000000000001 0  -0.8 0.6000000000000001 0  -0.6000000000000001 0.6000000000000001 0  -0.3999999999999999 0.6000000000000001 0  -0.2 0.6000000000000001 0  0 0.6000000000000001 0  0.2000000000000002 0.6000000000000001 0  0.3999999999999999 0.6000000000000001 0  0.6000000000000001 0.6000000000000001 0  0.7999999999999998 0.6000000000000001 0  1 0.6000000000000001 0  1.2 0.6000000000000001 0  1.4 0.6000000000000001 0  1.6 0.6000000000000001 0  1.8 0.6000000000000001 0  2 0.6000000000000001 0  -2 0.7999999999999998 0  -1.8 0.7999999999999998 0  -1.6 0.7999999999999998 0  -1.4 0.7999999999999998 0  -1.2 0.7999999999999998 0  -1 0.7999999999999998 0  -0.8 0.7999999999999998 0  -0.6000000000000001 0.7999999999999998 0  -0.3999999999999999 0.7999999999999998 0  -0.2 0.7999999999999998 0  0 0.7999999999999998 0  0.2000000000000002 0.7999999999999998 0  0.3999999999999999 0.7999999999999998 0  0.6000000000000001 0.7999999999999998 0  0.7999999999999998 0.7999999999999998 0  1 0.7999999999999998 0  1.2 0.7999999999999998 0  1.4 0.7999999999999998 0  1.6 0.7999999999999998 0  1.8 0.7999999999999998 0  2 0.7999999999999998 0  -2 1 0  -1.8 1 0  -1.6 1 0  -1.4 1 0  -1.2 1 0  -1 1 0  -0.8 1 0  -0.6000000000000001 1 0  -0.3999999999999999 1 0  -0.2 1 0  0 1 0  0.2000000000000002 1 0  0.3999999999999999 1 0  0.6000000000000001 1 0  0.7999999999999998 1 0  1 1 0  1.2 1 0  1.4 1 0  1.6 1 0  1.8 1 0  2 1 0  -2 1.2 0  -1.8 1.2 0  -1.6 1.2 0  -1.4 1.2 0  -1.2 1.2 0  -1 1.2 0  -0.8 1.2 0  -0.6000000000000001 1.2 0  -0.3999999999999999 1.2 0  -0.2 1.2 0  0 1.2 0  0.2000000000000002 1.2 0  0.3999999999999999 1.2 0  0.6000000000000001 1.2 0  0.7999999999999998 1.2 0  1 1.2 0  1.2 1.2 0  1.4 1.2 0  1.6 1.2 0  1.8 1.2 0  2 1.2 0  -2 1.4 0  -1.8 1.4 0  -1.6 1.4 0  -1.4 1.4 0  -1.2 1.4 0  -1 1.4 0  -0.8 1.4 0  -0.6000000000000001 1.4 0  -0.3999999999999999 1.4 0  -0.2 1.4 0  0 1.4 0  0.2000000000000002 1.4 0  0.3999999999999999 1.4 0  0.6000000000000001 1.4 0  0.7999999999999998 1.4 0  1 1.4 0  1.2 1.4 0  1.4 1.4 0  1.6 1.4 0  1.8 1.4 0  2 1.4 0  -2 1.6 0  -1.8 1.6 0  -1.6 1.6 0  -1.4 1.6 0  -1.2 1.6 0  -1 1.6 0  -0.8 1.6 0  -0.6000000000000001 1.6 0  -0.3999999999999999 1.6 0  -0.2 1.6 0  0 1.6 0  0.2000000000000002 1.6 0  0.3999999999999999 1.6 0  0.6000000000000001 1.6 0  0.7999999999999998 1.6 0  1 1.6 0  1.2 1.6 0  1.4 1.6 0  1.6 1.6 0  1.8 1.6 0  2 1.6 0  -2 1.8 0  -1.8 1.8 0  -1.6 1.8 0  -1.4 1.8 0  -1.2 1.8 0  -1 1.8 0  -0.8 1.8 0  -0.6000000000000001 1.8 0  -0.3999999999999999 1.8 0  -0.2 1.8 0  0 1.8 0  0.2000000000000002 1.8 0  0.3999999999999999 1.8 0  0.6000000000000001 1.8 0  0.7999999999999998 1.8 0  1 1.8 0  1.2 1.8 0  1.4 1.8 0  1.6 1.8 0  1.8 1.8 0  2 1.8 0  -2 2 0  -1.8 2 0  -1.6 2 0  -1.4 2 0  -1.2 2 0  -1 2 0  -0.8 2 0  -0.6000000000000001 2 0  -0.3999999999999999 2 0  -0.2 2 0  0 2 0  0.2000000000000002 2 0  0.3999999999999999 2 0  0.6000000000000001 2 0  0.7999999999999998 2 0  1 2 0  1.2 2 0  1.4 2 0  1.6 2 0  1.8 2 0  2 2 0  </DataArray>
</Points>
<Cells>
[...]
<PointData  Scalars="f_8"> 
<DataArray  type="Float64"  Name="f_8"  format="ascii">4.3237075213631545e-03  0.0000000000000000e+00  0.0000000000000000e+00  0.0000000000000000e+00  0.0000000000000000e+00  0.0000000000000000e+00  0.0000000000000000e+00  0.0000000000000000e+00  0.0000000000000000e+00  0.0000000000000000e+00  0.0000000000000000e+00  0.0000000000000000e+00  0.0000000000000000e+00  0.0000000000000000e+00  0.0000000000000000e+00  0.0000000000000000e+00  0.0000000000000000e+00  0.0000000000000000e+00  0.0000000000000000e+00  0.0000000000000000e+00  0.0000000000000000e+00  4.6187382591760168e-02  4.5837590320880105e-02  4.5263950626508398e-02  4.4451269271745954e-02  4.3390607504343794e-02  4.2079982463277328e-02  4.0522387246486047e-02  3.8724517911360057e-02  3.6695926479286538e-02  3.4448432983368589e-02  3.1995697459505479e-02  2.9352893302110227e-02  2.6536447626775095e-02  2.3563828739054219e-02  2.0453369407744827e-02  1.7224119756088563e-02  1.3895726702962054e-02  1.0488339001347940e-02  7.0225387807062905e-03  3.5193027859218556e-03  0.0000000000000000e+00  8.9421449103120026e-02  8.9095897824705061e-02  8.8204992731431869e-02  8.6762951812707156e-02  8.4783565376275197e-02  8.2282086137849070e-02  7.9276162735467864e-02  7.5786224933624732e-02  7.1835556147875415e-02  6.7450189095734817e-02  6.2658704135411761e-02  5.7491977997639526e-02  5.1982912326069615e-02  4.6166160631615757e-02  4.0077865527435613e-02  3.3755413547360461e-02  2.7237211409278820e-02  2.0562484668056685e-02  1.3771096924255178e-02  6.9033847699987534e-03  0.0000000000000000e+00  1.2927286835774920e-01  1.2883782542702904e-01  1.2759317144420790e-01  1.2554930781556004e-01  1.2272204950011766e-01  1.1913226608418194e-01  1.1480562762815372e-01  1.0977235459123415e-01  1.0406693411633607e-01  9.7727795531534656e-02  9.0796951875583370e-02  8.3319619743731685e-02  7.5343830944769763e-02  6.6920048469418056e-02  5.8100797159606574e-02  4.8940316789780954e-02  3.9494242333895736e-02  2.9819313196768487e-02  1.9973110299189294e-02  1.0013817287920701e-02  0.0000000000000000e+00  1.6429009183567528e-01  1.6375338031948880e-01  1.6218970271673711e-01  1.5961064333109004e-01  1.5603493517968064e-01  1.5148815064913460e-01  1.4600233932652626e-01  1.3961561843584042e-01  1.3237172128459085e-01  1.2431951182745853e-01  1.1551247611918891e-01  1.0600820306404136e-01  9.5867867251803032e-02  8.5155725893390932e-02  7.3938640140669559e-02  6.2285628638192175e-02  5.0267458256397828e-02  3.7956273837647853e-02  2.5425265679644742e-02  1.2748370603036152e-02  0.0000000000000000e+00  1.9367848267842055e-01  1.9305666472639338e-01  1.9122456621736941e-01  1.8819541857794167e-01  1.8399085651858138e-01  1.7864061748051308e-01  1.7218214694058659e-01  1.6466012453428411e-01  1.5612592686144949e-01  1.4663704371634306e-01  1.3625646499906827e-01  1.2505205545196596e-01  1.1309593347815743e-01  1.0046386861336390e-01  8.7234709803709232e-02  7.3489853627632107e-02  5.9312758172350086e-02  4.4788504645470684e-02  3.0003405192648536e-02  1.5044652021345669e-02  0.0000000000000000e+00  2.1714696262906161e-01  2.1645738177117280e-01  2.1441093109036435e-01  2.1102224729027605e-01  2.0631537647499160e-01  2.0032345328956144e-01  1.9308827118599473e-01  1.8465975937364484e-01  1.7509538450549425e-01  1.6445949678094079e-01  1.5282264085755454e-01  1.4026085172156458e-01  1.2685495447316589e-01  1.1268988489435618e-01  9.7854044794333989e-02  8.2438702629632266e-02  6.6537445971075471e-02  5.0245688261497702e-02  3.3660228213377823e-02  1.6878856368435505e-02  0.0000000000000000e+00  2.3479756397108534e-01  2.3405687860395544e-01  2.3184903371197846e-01  2.2818974051381152e-01  2.2310488070383383e-01  2.1663016466359031e-01  2.0881067166733719e-01  1.9970028830477465e-01  1.8936106434939107e-01  1.7786250731027725e-01  1.6528083783686759e-01  1.5169822796973931e-01  1.3720204297167948e-01  1.2188410521324822e-01  1.0583999546093652e-01  8.9168403105532146e-02  7.1970532592544004e-02  5.4349568819754231e-02  3.6410199804988913e-02  1.8258190753009742e-02  0.0000000000000000e+00  2.4696898035306319e-01  2.4619274153020687e-01  2.4387328789000318e-01  2.4002707898530756e-01  2.3468127088187465e-01  2.2787335892196789e-01  2.1965069632110679e-01  2.1006990544898654e-01  1.9919620186661915e-01  1.8710265337454676e-01  1.7386939737099691e-01  1.5958283968517070e-01  1.4433485676398319e-01  1.2822202073706027e-01  1.1134486360853911e-01  9.3807192818633298e-02  7.5715465915351027e-02  5.7178227335635039e-02  3.8305605585825020e-02  1.9208864700921698e-02  0.0000000000000000e+00  2.5406282110544176e-01  2.5326563170276062e-01  2.5088090169261607e-01  2.4692552962281106e-01  2.4142741767463483e-01  2.3442510535640787e-01  2.2596727540244352e-01  2.1611214912479515e-01  2.0492679179637172e-01  1.9248635091385310e-01  1.7887325128968543e-01  1.6417637081083747e-01  1.4849021940077936e-01  1.3191414131790108e-01  1.1455155756564714e-01  9.6509261075804029e-02  7.7896772695808997e-02  5.8825761129936337e-02  3.9409525131408628e-02  1.9762531693504809e-02  0.0000000000000000e+00  2.5638910029240652e-01  2.5558517416190796e-01  2.5317916197063145e-01  2.4918810077780928e-01  2.4364013299635168e-01  2.3657413738072666e-01  2.2803923093852355e-01  2.1809415913200439e-01  2.0680659510930241e-01  1.9425237100962453e-01  1.8051466551286727e-01  1.6568317170625760e-01  1.4985326804081800e-01  1.3312521273604411e-01  1.1560337861014766e-01  9.7395541165712016e-02  7.8612228087812430e-02  5.9366133382332702e-02  3.9771594477848088e-02  1.9944126013680299e-02  0.0000000000000000e+00  2.5406105974037207e-01  2.5326498133080605e-01  2.5088132497231036e-01  2.4692695978535717e-01  2.4142976208984623e-01  2.3442825007531620e-01  2.2597109037342755e-01  2.1611649373572583e-01  2.0493152037459691e-01  1.9249131782037357e-01  1.7887831527350884e-01  1.6418139834255852e-01  1.4849508677772502e-01  1.3191873542215898e-01  1.1455577525533554e-01  9.6513007292633679e-02  7.7899957471535053e-02  5.8828295763911916e-02  3.9411317884801678e-02  1.9763483397358828e-02  0.0000000000000000e+00  2.4695836160967066e-01  2.4618581558575373e-01  2.4386998118274630e-01  2.4002723246016922e-01  2.3468464845314860e-01  2.2787965810554861e-01  2.1965956036227291e-01  2.1008093618843224e-01  1.9920897255429917e-01  1.8711672066026414e-01  1.7388431177163252e-01  1.5959815394701407e-01  1.4435013169780636e-01  1.2823682829378519e-01  1.1135878717283222e-01  9.3819824913216887e-02  7.5726403716138480e-02  5.7187066582884860e-02  3.8311933626195144e-02  1.9212253498234848e-02  0.0000000000000000e+00  2.3476512728681109e-01  2.3403335984219348e-01  2.3183431655557726e-01  2.2818352022931654e-01  2.2310668044721021e-01  2.1663935541267937e-01  2.0882649459302377e-01  1.9972187829250868e-01  1.8938747336321210e-01  1.7789272635369444e-01  1.6531381640535223e-01  1.5173289010057492e-01  1.3723729926699149e-01  1.2191886052615790e-01  1.0587315227479673e-01  8.9198860981549957e-02  7.1997184389757912e-02  5.4371294681054144e-02  3.6425860132571784e-02  1.8266619548013341e-02  0.0000000000000000e+00  2.1707643239102678e-01  2.1640423509840484e-01  2.1437497319873486e-01  2.1100293783047711e-01  2.0631185901446328e-01  2.0033458978524571e-01  1.9311267951178129e-01  1.8469585191795260e-01  1.7514140591832036e-01  1.6451355911823662e-01  1.5288275463351711e-01  1.4032495172417125e-01  1.2692091961052279e-01  1.1275555180135001e-01  9.7917215418796499e-02  8.2497146508742764e-02  6.6588898372563932e-02  5.0287845768823683e-02  3.3690743647911643e-02  1.6895335135898068e-02  0.0000000000000000e+00  1.9355421707821219e-01  1.9296129370646506e-01  1.9115770764903919e-01  1.8815614552720217e-01  1.8397774939659853e-01  1.7865182122664336e-01  1.7221543020505406e-01  1.6471293803623338e-01  1.5619545843382190e-01  1.4672026795907211e-01  1.3635018592247478e-01  1.2515294099770072e-01  1.1320054135627138e-01  1.0056866348830142e-01  8.7336072487667060e-02  7.3584083574362122e-02  5.9396071174748599e-02  4.4857028183278705e-02  3.0053174302328487e-02  1.5071608815653030e-02  0.0000000000000000e+00  1.6410241989341504e-01  1.6360806855962509e-01  1.6208591159640637e-01  1.5954678755545035e-01  1.5600877614666403e-01  1.5149688938472886e-01  1.4604270506435416e-01  1.3968394942497614e-01  1.3246403562339970e-01  1.2443156697647932e-01  1.1563981633868853e-01  1.0614619449215554e-01  9.6011720802049588e-02  8.5300508677966805e-02  7.4079276749759990e-02  6.2416894323190170e-02  5.0383966846200445e-02  3.8052464006400881e-02  2.5495389898971491e-02  1.2786491638274991e-02  0.0000000000000000e+00  1.2902481572773974e-01  1.2864561062202703e-01  1.2745488271958552e-01  1.2546217034349394e-01  1.2268259791338061e-01  1.1913649558047415e-01  1.1484911556361281e-01  1.0985035383101047e-01  1.0417444204406313e-01  9.7859602525156561e-02  9.0947672121389114e-02  8.3483706322253506e-02  7.5515576512817720e-02  6.7093572680549482e-02  5.8270022213160473e-02  4.9098933148245594e-02  3.9635667669984130e-02  2.9936648998918729e-02  2.0059102237927069e-02  1.0060827322236208e-02  0.0000000000000000e+00  8.9137518793512172e-02  8.8878627316466410e-02  8.8050017920041856e-02  8.6665141005288465e-02  8.4737496213598301e-02  8.2282267443520213e-02  7.9317123091261321e-02  7.5862535419664853e-02  7.1941821811766726e-02  6.7581025616958973e-02  6.2808706358372546e-02  5.7655681877061320e-02  5.2154749319023898e-02  4.6340402545674071e-02  4.0248557684701952e-02  3.3916294566353582e-02  2.7381618899924642e-02  2.0683247882698031e-02  1.3860420445565066e-02  6.9527327177651838e-03  0.0000000000000000e+00  4.5927994398254443e-02  4.5650244497343874e-02  4.5137430093110067e-02  4.4374688972008837e-02  4.3355769487142433e-02  4.2080417830520585e-02  4.0552741156039955e-02  3.8780150935397051e-02  3.6772652647357601e-02  3.4542343571360642e-02  3.2103037226016276e-02  2.9469966713291215e-02  2.6659539190748628e-02  2.3689125363658081e-02  2.0576874492977359e-02  1.7341548857984584e-02  1.4002373001165171e-02  1.0578893023724488e-02  7.0908399483189362e-03  3.5579886792089714e-03  0.0000000000000000e+00  4.2189755375025839e-03  0.0000000000000000e+00  0.0000000000000000e+00  0.0000000000000000e+00  0.0000000000000000e+00  0.0000000000000000e+00  0.0000000000000000e+00  0.0000000000000000e+00  0.0000000000000000e+00  0.0000000000000000e+00  0.0000000000000000e+00  0.0000000000000000e+00  0.0000000000000000e+00  0.0000000000000000e+00  0.0000000000000000e+00  0.0000000000000000e+00  0.0000000000000000e+00  0.0000000000000000e+00  0.0000000000000000e+00  0.0000000000000000e+00  0.0000000000000000e+00  </DataArray> 
</PointData> 
</Piece>
</UnstructuredGrid>
</VTKFile>