<?xml version="1.0"?>
<VTKFile type="UnstructuredGrid"  version="0.1"  >
<UnstructuredGrid>
<Piece  NumberOfPoints="441" NumberOfCells="800">
<Points>
<DataArray  type="Float64"  NumberOfComponents="3"  format="ascii">-2 -2 0  -1.8 -2 0  -1.6 -2 0  -1.4 -2 0  -1.2 -2 0  -1 -2 0  -0.8 -2 0  -0.6000000000000001 -2 0  -0.3999999999999999 -2 0  -0.2 -2 0  0 -2 0  0.2000000000000002 -2 0  0.3999999999999999 -2 0  0.6000000000000001 -2 0  0.7999999999999998 -2 0  1 -2 0  1.2 -2 0  1.4 -2 0  1.6 -2 0  1.8 -2 0  2 -2 0  -2 -1.8 0  -1.8 -1.8 0  -1.6 -1.8 0  -1.4 -1.8 0  -1.2 -1.8 0  -1 -1.8 0  -0.8 -1.8 0  -0.6000000000000001 -1.8 0  -0.3999999999999999 -1.8 0  -0.2 -1.8 0  0 -1.8 0  0.2000000000000002 -1.8 0  0.3999999999999999 -1.8 0  0.6000000000000001 -1.8 0  0.7999999999999998 -1.8 0  1 -1.8 0  1.2 -1.8 0  1.4 -1.8 0  1.6 -1.8 0  1.8 -1.8 0  2 -1.8 0  -2 -1.6 0  -1.8 -1.6 0  -1.6 -1.6 0  -1.4 -1.6 0  -1.2 -1.6 0  -1 -1.6 0  -0.8 -1.6 0  -0.6000000000000001 -1.6 0  -0.3999999999999999 -1.6 0  -0.2 -1.6 0  0 -1.6 0  0.2000000000000002 -1.6 0  0.3999999999999999 -1.6 0  0.6000000000000001 -1.6 0  0.7999999999999998 -1.6 0  1 -1.6 0  1.2 -1.6 0  1.4 -1.6 0  1.6 -1.6 0  1.8 -1.6 0  2 -1.6 0  -2 -1.4 0  -1.8 -1.4 0  -1.6 -1.4 0  -1.4 -1.4 0  -1.2 -1.4 0  -1 -1.4 0  -0.8 -1.4 0  -0.6000000000000001 -1.4 0  -0.3999999999999999 -1.4 0  -0.2 -1.4 0  0 -1.4 0  0.2000000000000002 -1.4 0  0.3999999999999999 -1.4 0  0.6000000000000001 -1.4 0  0.7999999999999998 -1.4 0  1 -1.4 0  1.2 -1.4 0  1.4 -1.4 0  1.6 -1.4 0  1.8 -1.4 0  2 -1.4 0  -2 -1.2 0  -1.8 -1.2 0  -1.6 -1.2 0  -1.4 -1.2 0  -1.2 -1.2 0  -1 -1.2 0  -0.8 -1.2 0  -0.6000000000000001 -1.2 0  -0.3999999999999999 -1.2 0  -0.2 -1.2 0  0 -1.2 0  0.2000000000000002 -1.2 0  0.3999999999999999 -1.2 0  0.6000000000000001 -1.2 0  0.7999999999999998 -1.2 0  1 -1.2 0  1.2 -1.2 0  1.4 -1.2 0  1.6 -1.2 0  1.8 -1.2 0  2 -1.2 0  -2 -1 0  -1.8 -1 0  -1.6 -1 0  -1.4 -1 0  -1.2 -1 0  -1 -1 0  -0.8 -1 0  -0.6000000000000001 -1 0  -0.3999999999999999 -1 0  -0.2 -1 0  0 -1 0  0.2000000000000002 -1 0  0.3999999999999999 -1 0  0.6000000000000001 -1 0  0.7999999999999998 -1 0  1 -1 0  1.2 -1 0  1.4 -1 0  1.6 -1 0  1.8 -1 0  2 -1 0  -2 -0.8 0  -1.8 -0.8 0  -1.6 -0.8 0  -1.4 -0.8 0  -1.2 -0.8 0  -1 -0.8 0  -0.8 -0.8 0  -0.6000000000000001 -0.8 0  -0.3999999999999999 -0.8 0  -0.2 -0.8 0  0 -0.8 0  0.2000000000000002 -0.8 0  0.3999999999999999 -0.8 0  0.6000000000000001 -0.8 0  0.7999999999999998 -0.8 0  1 -0.8 0  1.2 -0.8 0  1.4 -0.8 0  1.6 -0.8 0  1.8 -0.8 0  2 -0.8 0  -2 -0.6000000000000001 0  -1.8 -0.6000000000000001 0  -1.6 -0.6000000000000001 0  -1.4 -0.6000000000000001 0  -1.2 -0.6000000000000001 0  -1 -0.6000000000000001 0  -0.8 -0.6000000000000001 0  -0.6000000000000001 -0.6000000000000001 0  -0.3999999999999999 -0.6000000000000001 0  -0.2 -0.6000000000000001 0  0 -0.6000000000000001 0  0.2000000000000002 -0.6000000000000001 0  0.3999999999999999 -0.6000000000000001 0  0.6000000000000001 -0.6000000000000001 0  0.7999999999999998 -0.6000000000000001 0  1 -0.6000000000000001 0  1.2 -0.6000000000000001 0  1.4 -0.6000000000000001 0  1.6 -0.6000000000000001 0  1.8 -0.6000000000000001 0  2 -0.6000000000000001 0  -2 -0.3999999999999999 0  -1.8 -0.3999999999999999 0  -1.6 -0.3999999999999999 0  -1.4 -0.3999999999999999 0  -1.2 -0.3999999999999999 0  -1 -0.3999999999999999 0  -0.8 -0.3999999999999999 0  -0.6000000000000001 -0.3999999999999999 0  -0.3999999999999999 -0.3999999999999999 0  -0.2 -0.3999999999999999 0  0 -0.3999999999999999 0  0.2000000000000002 -0.3999999999999999 0  0.3999999999999999 -0.3999999999999999 0  0.6000000000000001 -0.3999999999999999 0  0.7999999999999998 -0.3999999999999999 0  1 -0.3999999999999999 0  1.2 -0.3999999999999999 0  1.4 -0.3999999999999999 0  1.6 -0.3999999999999999 0  1.8 -0.3999999999999999 0  2 -0.3999999999999999 0  -2 -0.2 0  -1.8 -0.2 0  -1.6 -0.2 0  -1.4 -0.2 0  -1.2 -0.2 0  -1 -0.2 0  -0.8 -0.2 0  -0.6000000000000001 -0.2 0  -0.3999999999999999 -0.2 0  -0.2 -0.2 0  0 -0.2 0  0.2000000000000002 -0.2 0  0.3999999999999999 -0.2 0  0.6000000000000001 -0.2 0  0.7999999999999998 -0.2 0  1 -0.2 0  1.2 -0.2 0  1.4 -0.2 0  1.6 -0.2 0  1.8 -0.2 0  2 -0.2 0  -2 0 0  -1.8 0 0  -1.6 0 0  -1.4 0 0  -1.2 0 0  -1 0 0  -0.8 0 0  -0.6000000000000001 0 0  -0.3999999999999999 0 0  -0.2 0 0  0 0 0  0.2000000000000002 0 0  0.3999999999999999 0 0  0.6000000000000001 0 0  0.7999999999999998 0 0  1 0 0  1.2 0 0  1.4 0 0  1.6 0 0  1.8 0 0  2 0 0  -2 0.2000000000000002 0  -1.8 0.2000000000000002 0  -1.6 0.2000000000000002 0  -1.4 0.2000000000000002 0  -1.2 0.2000000000000002 0  -1 0.2000000000000002 0  -0.8 0.2000000000000002 0  -0.6000000000000001 0.2000000000000002 0  -0.3999999999999999 0.2000000000000002 0  -0.2 0.2000000000000002 0  0 0.2000000000000002 0  0.2000000000000002 0.2000000000000002 0  0.3999999999999999 0.2000000000000002 0  0.6000000000000001 0.2000000000000002 0  0.7999999999999998 0.2000000000000002 0  1 0.2000000000000002 0  1.2 0.2000000000000002 0  1.4 0.2000000000000002 0  1.6 0.2000000000000002 0  1.8 0.2000000000000002 0  2 0.2000000000000002 0  -2 0.3999999999999999 0  -1.8 0.3999999999999999 0  -1.6 0.3999999999999999 0  -1.4 0.3999999999999999 0  -1.2 0.3999999999999999 0  -1 0.3999999999999999 0  -0.8 0.3999999999999999 0  -0.6000000000000001 0.3999999999999999 0  -0.3999999999999999 0.3999999999999999 0  -0.2 0.3999999999999999 0  0 0.3999999999999999 0  0.2000000000000002 0.3999999999999999 0  0.3999999999999999 0.3999999999999999 0  0.6000000000000001 0.3999999999999999 0  0.7999999999999998 0.3999999999999999 0  1 0.3999999999999999 0  1.2 0.3999999999999999 0  1.4 0.3999999999999999 0  1.6 0.3999999999999999 0  1.8 0.3999999999999999 0  2 0.3999999999999999 0  -2 0.6000000000000001 0  -1.8 0.6000000000000001 0  -1.6 0.6000000000000001 0  -1.4 0.6000000000000001 0  -1.2 0.6000000000000001 0  -1 0.6000000000000001 0  -0.8 0.6000000000000001 0  -0.6000000000000001 0.6000000000000001 0  -0.3999999999999999 0.6000000000000001 0  -0.2 0.6000000000000001 0  0 0.6000000000000001 0  0.2000000000000002 0.6000000000000001 0  0.3999999999999999 0.6000000000000001 0  0.6000000000000001 0.6000000000000001 0  0.7999999999999998 0.6000000000000001 0  1 0.6000000000000001 0  1.2 0.6000000000000001 0  1.4 0.6000000000000001 0  1.6 0.6000000000000001 0  1.8 0.6000000000000001 0  2 0.6000000000000001 0  -2 0.7999999999999998 0  -1.8 0.7999999999999998 0  -1.6 0.7999999999999998 0  -1.4 0.7999999999999998 0  -1.2 0.7999999999999998 0  -1 0.7999999999999998 0  -0.8 0.7999999999999998 0  -0.6000000000000001 0.7999999999999998 0  -0.3999999999999999 0.7999999999999998 0  -0.2 0.7999999999999998 0  0 0.7999999999999998 0  0.2000000000000002 0.7999999999999998 0  0.3999999999999999 0.7999999999999998 0  0.6000000000000001 0.7999999999999998 0  0.7999999999999998 0.7999999999999998 0  1 0.7999999999999998 0  1.2 0.7999999999999998 0  1.4 0.7999999999999998 0  1.6 0.7999999999999998 0  1.8 0.7999999999999998 0  2 0.7999999999999998 0  -2 1 0  -1.8 1 0  -1.6 1 0  -1.4 1 0  -1.2 1 0  -1 1 0  -0.8 1 0  -0.6000000000000001 1 0  -0.3999999999999999 1 0  -0.2 1 0  0 1 0  0.2000000000000002 1 0  0.3999999999999999 1 0  0.6000000000000001 1 0  0.7999999999999998 1 0  1 1 0  1.2 1 0  1.4 1 0  1.6 1 0  1.8 1 0  2 1 0  -2 1.2 0  -1.8 1.2 0  -1.6 1.2 0  -1.4 1.2 0  -1.2 1.2 0  -1 1.2 0  -0.8 1.2 0  -0.6000000000000001 1.2 0  -0.3999999999999999 1.2 0  -0.2 1.2 0  0 1.2 0  0.2000000000000002 1.2 0  0.3999999999999999 1.2 0  0.6000000000000001 1.2 0  0.7999999999999998 1.2 0  1 1.2 0  1.2 1.2 0  1.4 1.2 0  1.6 1.2 0  1.8 1.2 0  2 1.2 0  -2 1.4 0  -1.8 1.4 0  -1.6 1.4 0  -1.4 1.4 0  -1.2 1.4 0  -1 1.4 0  -0.8 1.4 0  -0.6000000000000001 1.4 0  -0.3999999999999999 1.4 0  -0.2 1.4 0  0 1.4 0  0.2000000000000002 1.4 0  0.3999999999999999 1.4 0  0.6000000000000001 1.4 0  0.7999999999999998 1.4 0  1 1.4 0  1.2 1.4 0  1.4 1.4 0  1.6 1.4 0  1.8 1.4 0  2 1.4 0  -2 1.6 0  -1.8 1.6 0  -1.6 1.6 0  -1.4 1.6 0  -1.2 1.6 0  -1 1.6 0  -0.8 1.6 0  -0.6000000000000001 1.6 0  -0.3999999999999999 1.6 0  -0.2 1.6 0  0 1.6 0  0.2000000000000002 1.6 0  0.3999999999999999 1.6 0  0.6000000000000001 1.6 0  0.7999999999999998 1.6 0  1 1.6 0  1.2 1.6 0  1.4 1.6 0  1.6 1.6 0  1.8 1.6 0  2 1.6 0  -2 1.8 0  -1.8 1.8 0  -1.6 1.8 0  -1.4 1.8 0  -1.2 1.8 0  -1 1.8 0  -0.8 1.8 0  -0.6000000000000001 1.8 0  -0.3999999999999999 1.8 0  -0.2 1.8 0  0 1.8 0  0.2000000000000002 1.8 0  0.3999999999999999 1.8 0  0.6000000000000001 1.8 0  0.7999999999999998 1.8 0  1 1.8 0  1.2 1.8 0  1.4 1.8 0  1.6 1.8 0  1.8 1.8 0  2 1.8 0  -2 2 0  -1.8 2 0  -1.6 2 0  -1.4 2 0  -1.2 2 0  -1 2 0  -0.8 2 0  -0.6000000000000001 2 0  -0.3999999999999999 2 0  -0.2 2 0  0 2 0  0.2000000000000002 2 0  0.3999999999999999 2 0  0.6000000000000001 2 0  0.7999999999999998 2 0  1 2 0  1.2 2 0  1.4 2 0  1.6 2 0  1.8 2 0  2 2 0  </DataArray>
</Points>
<Cells>
[...]
<PointData  Scalars="f_8"> 
<DataArray  type="Float64"  Name="f_8"  format="ascii">3.7739771497271118e-02  3.7740677360208676e-02  3.7741055479649739e-02  3.7741252013669409e-02  3.7741369389613214e-02  3.7741445069425263e-02  3.7741496031936682e-02  3.7741531474396968e-02  3.7741557107338779e-02  3.7741576898558442e-02  3.7741593925265944e-02  3.7741610881497294e-02  3.7741630460899366e-02  3.7741655738839891e-02  3.7741690677338145e-02  3.7741740971061900e-02  3.7741815776187251e-02  3.7741931967633688e-02  3.7742126757906946e-02  3.7742502127276471e-02  3.7743404860234607e-02  3.7746335765248176e-02  3.7746545114880674e-02  3.7746747303164095e-02  3.7746890813030926e-02  3.7746988273182333e-02  3.7747054667213488e-02  3.7747100484158524e-02  3.7747132686978747e-02  3.7747156055782924e-02  3.7747174089638361e-02  3.7747189577820459e-02  3.7747204992263091e-02  3.7747222804420583e-02  3.7747245801694695e-02  3.7747277478534833e-02  3.7747322605543171e-02  3.7747388130115182e-02  3.7747484528896244e-02  3.7747626832324251e-02  3.7747827969497202e-02  3.7748037181799858e-02  3.7763350751805716e-02  3.7763374130102521e-02  3.7763450257238838e-02  3.7763525759422205e-02  3.7763586434091188e-02  3.7763631686256453e-02  3.7763664426676335e-02  3.7763687923514387e-02  3.7763705032135074e-02  3.7763718139401249e-02  3.7763729294868223e-02  3.7763740378533410e-02  3.7763753270966149e-02  3.7763770023642312e-02  3.7763793027645778e-02  3.7763825147924868e-02  3.7763869676361160e-02  3.7763929583873146e-02  3.7764004418734690e-02  3.7764080263271951e-02  3.7764104109923029e-02  3.7790519811111652e-02  3.7790477335547863e-02  3.7790480850635258e-02  3.7790501881324316e-02  3.7790525575464452e-02  3.7790546092867278e-02  3.7790561963762702e-02  3.7790573516244284e-02  3.7790581702963517e-02  3.7790587631322002e-02  3.7790592409077069e-02  3.7790597121586472e-02  3.7790602856186864e-02  3.7790610727204292e-02  3.7790621855412640e-02  3.7790637218455291e-02  3.7790657190175783e-02  3.7790680382089506e-02  3.7790701087002332e-02  3.7790704632139044e-02  3.7790662694749858e-02  3.7827070403688268e-02  3.7826995374524129e-02  3.7826955790171791e-02  3.7826937596014930e-02  3.7826930225183998e-02  3.7826927435617233e-02  3.7826926047646335e-02  3.7826924661040776e-02  3.7826922804715307e-02  3.7826920457179253e-02  3.7826917798136017e-02  3.7826915083304220e-02  3.7826912571424599e-02  3.7826910451960440e-02  3.7826908722117469e-02  3.7826906942398826e-02  3.7826903762685278e-02  3.7826896077518747e-02  3.7826877742691528e-02  3.7826838294210283e-02  3.7826763739520451e-02  3.7871954487241337e-02  3.7871859099996207e-02  3.7871792141188604e-02  3.7871746393829502e-02  3.7871714922895719e-02  3.7871692496285872e-02  3.7871675607118384e-02  3.7871662037392929e-02  3.7871650406639805e-02  3.7871639832999515e-02  3.7871629705769724e-02  3.7871619533301260e-02  3.7871608827337505e-02  3.7871596987885406e-02  3.7871583152662522e-02  3.7871565971970292e-02  3.7871543272054352e-02  3.7871511603941449e-02  3.7871465801410882e-02  3.7871398987541258e-02  3.7871303971487205e-02  3.7923921965081556e-02  3.7923812679057818e-02  3.7923727670144278e-02  3.7923662897180445e-02  3.7923613750582050e-02  3.7923576095623635e-02  3.7923546623304917e-02  3.7923522815490454e-02  3.7923502769629892e-02  3.7923485007082827e-02  3.7923468307633497e-02  3.7923451573288997e-02  3.7923433709170853e-02  3.7923413504727450e-02  3.7923389498385654e-02  3.7923359813061330e-02  3.7923321964780786e-02  3.7923272685560921e-02  3.7923207882804164e-02  3.7923122979791800e-02  3.7923013947001163e-02  3.7981567163356142e-02  3.7981448672019191e-02  3.7981352055014954e-02  3.7981274784575053e-02  3.7981213612114664e-02  3.7981165233444282e-02  3.7981126649602889e-02  3.7981095283618163e-02  3.7981068957435637e-02  3.7981045807200686e-02  3.7981024179574135e-02  3.7981002526555230e-02  3.7980979302503860e-02  3.7980952861321762e-02  3.7980921351649620e-02  3.7980882613441305e-02  3.7980834092794007e-02  3.7980772816914518e-02  3.7980695506748555e-02  3.7980598931807434e-02  3.7980480569676713e-02  3.8043370205223491e-02  3.8043246574666560e-02  3.8043143452260744e-02  3.8043059046035430e-02  3.8042990863168022e-02  3.8042936137731055e-02  3.8042892132703350e-02  3.8042856299315773e-02  3.8042826326391943e-02  3.8042800120347706e-02  3.8042775747370132e-02  3.8042751357595592e-02  3.8042725102481141e-02  3.8042695052244703e-02  3.8042659120186187e-02  3.8042615004889278e-02  3.8042560169806484e-02  3.8042491891382618e-02  3.8042407416180549e-02  3.8042304259989855e-02  3.8042180633092351e-02  3.8107737952128969e-02  3.8107612968688413e-02  3.8107507774920411e-02  3.8107420918376454e-02  3.8107350284760103e-02  3.8107293404504146e-02  3.8107247706434963e-02  3.8107210682635451e-02  3.8107179967331720e-02  3.8107153349650875e-02  3.8107128742581015e-02  3.8107104126717431e-02  3.8107077482802870e-02  3.8107046724297079e-02  3.8107009641197322e-02  3.8106963869075139e-02  3.8106906901843082e-02  3.8106836170497198e-02  3.8106749207620111e-02  3.8106643900493391e-02  3.8106518797089754e-02  3.8173045077725329e-02  3.8172922346404771e-02  3.8172819143422534e-02  3.8172734117586780e-02  3.8172665273676479e-02  3.8172610241569149e-02  3.8172566511850824e-02  3.8172531599288281e-02  3.8172503129130474e-02  3.8172478859582894e-02  3.8172456659401673e-02  3.8172434458347587e-02  3.8172410185138242e-02  3.8172381705402117e-02  3.8172346772175882e-02  3.8172303003694327e-02  3.8172247906379957e-02  3.8172178962139099e-02  3.8172093793321232e-02  3.8171990399974445e-02  3.8171867430004107e-02  3.8237674760367400e-02  3.8237557720252550e-02  3.8237460341993476e-02  3.8237381183396299e-02  3.8237318147839330e-02  3.8237268786655954e-02  3.8237230549636500e-02  3.8237200948196992e-02  3.8237177633663341e-02  3.8237158409977982e-02  3.8237141202752588e-02  3.8237124003031552e-02  3.8237104799710951e-02  3.8237081511902693e-02  3.8237051932619517e-02  3.8237013697988383e-02  3.8236964300789725e-02  3.8236901170747288e-02  3.8236821841131849e-02  3.8236724203566767e-02  3.8236606813696887e-02  3.8300058175277818e-02  3.8299950096266050e-02  3.8299862249335681e-02  3.8299792874380387e-02  3.8299739526400423e-02  3.8299699490393871e-02  3.8299670075687582e-02  3.8299648772508049e-02  3.8299633301399905e-02  3.8299621594330001e-02  3.8299611737932032e-02  3.8299601898289050e-02  3.8299590238433941e-02  3.8299574835676718e-02  3.8299553605984971e-02  3.8299524246984552e-02  3.8299484219704159e-02  3.8299430800559232e-02  3.8299361243371445e-02  3.8299273081777829e-02  3.8299164551653379e-02  3.8358711889608911e-02  3.8358615891273401e-02  3.8358541291276006e-02  3.8358485647613419e-02  3.8358445821193021e-02  3.8358418609004720e-02  3.8358401091672087e-02  3.8358390749521000e-02  3.8358385443994489e-02  3.8358383338015480e-02  3.8358382796070005e-02  3.8358382281149857e-02  3.8358380252646956e-02  3.8358375063885841e-02  3.8358364858086975e-02  3.8358347467256651e-02  3.8358320332081190e-02  3.8358280485357686e-02  3.8358224675029307e-02  3.8358149725216936e-02  3.8358053185674097e-02  3.8412272255312969e-02  3.8412191404786286e-02  3.8412134045706862e-02  3.8412096358220342e-02  3.8412073969588019e-02  3.8412062929669602e-02  3.8412060049032568e-02  3.8412062876512193e-02  3.8412069541315652e-02  3.8412078575239546e-02  3.8412088755823227e-02  3.8412098974452295e-02  3.8412108118879747e-02  3.8412114955166263e-02  3.8412117994058574e-02  3.8412115331450371e-02  3.8412104467722648e-02  3.8412082149063768e-02  3.8412044351190326e-02  3.8411986637284422e-02  3.8411905167475863e-02  3.8459525876299853e-02  3.8459463505405932e-02  3.8459428246593708e-02  3.8459413445016570e-02  3.8459412653527522e-02  3.8459420947010409e-02  3.8459434968801311e-02  3.8459452549418550e-02  3.8459472300953430e-02  3.8459493306685986e-02  3.8459514908161352e-02  3.8459536558659566e-02  3.8459557708427801e-02  3.8459577689191317e-02  3.8459595565299411e-02  3.8459609916482104e-02  3.8459618520973356e-02  3.8459617942746459e-02  3.8459603149157848e-02  3.8459567579168748e-02  3.8459504523424351e-02  3.8499435064288524e-02  3.8499395755814118e-02  3.8499389633438734e-02  3.8499404055376718e-02  3.8499429385489448e-02  3.8499459811738579e-02  3.8499492270824325e-02  3.8499525322976617e-02  3.8499558394019688e-02  3.8499591339999556e-02  3.8499624215167907e-02  3.8499657148998660e-02  3.8499690269111916e-02  3.8499723623568669e-02  3.8499757055655073e-02  3.8499789966888583e-02  3.8499820871838474e-02  3.8499846623362317e-02  3.8499861266626002e-02  3.8499854965344714e-02  3.8499814922953554e-02  3.8531156446257986e-02  3.8531149367794282e-02  3.8531184516230332e-02  3.8531236838213481e-02  3.8531292978247644e-02  3.8531347457774985e-02  3.8531398690395222e-02  3.8531446737976760e-02  3.8531492269144610e-02  3.8531536129996734e-02  3.8531579192572829e-02  3.8531622320581119e-02  3.8531666377292779e-02  3.8531712233214457e-02  3.8531760730807635e-02  3.8531812529778130e-02  3.8531867668705297e-02  3.8531924499924326e-02  3.8531977393283338e-02  3.8532012674053880e-02  3.8532004857286160e-02  3.8554047734299678e-02  3.8554099300806687e-02  3.8554198961985586e-02  3.8554300482499020e-02  3.8554390960074486e-02  3.8554469330501120e-02  3.8554537722455762e-02  3.8554598702898346e-02  3.8554654568391397e-02  3.8554707264438319e-02  3.8554758476029301e-02  3.8554809755769817e-02  3.8554862656884598e-02  3.8554918866544781e-02  3.8554980334945553e-02  3.8555049367096042e-02  3.8555128541568333e-02  3.8555219989506541e-02  3.8555322578225380e-02  3.8555423046086189e-02  3.8555474073358048e-02  3.8567644064139220e-02  3.8567851399519994e-02  3.8568057922542226e-02  3.8568218109758662e-02  3.8568341177174233e-02  3.8568439013091621e-02  3.8568520078485762e-02  3.8568590039828224e-02  3.8568652814121966e-02  3.8568711286617895e-02  3.8568767769620191e-02  3.8568824319352532e-02  3.8568882992853520e-02  3.8568946105440698e-02  3.8569016549581968e-02  3.8569098258306324e-02  3.8569196933081466e-02  3.8569321110145771e-02  3.8569482820911508e-02  3.8569691360595570e-02  3.8569899394639770e-02  3.8571523240453022e-02  3.8572298771556046e-02  3.8572650561130385e-02  3.8572855326466517e-02  3.8572995611814570e-02  3.8573101808497642e-02  3.8573187760473332e-02  3.8573260999479914e-02  3.8573326223092813e-02  3.8573386711095378e-02  3.8573445018473256e-02  3.8573503388418952e-02  3.8573564064411051e-02  3.8573629602657492e-02  3.8573703286299207e-02  3.8573789820836986e-02  3.8573896755464278e-02  3.8574037975233601e-02  3.8574244003779574e-02  3.8574598039758622e-02  3.8575380889496108e-02  </DataArray> 
</PointData> 
</Piece>
</UnstructuredGrid>
</VTKFile>