<?xml version="1.0"?>
<VTKFile type="UnstructuredGrid"  version="0.1"  >
<UnstructuredGrid>
<Piece  NumberOfPoints="441" NumberOfCells="800">
<Points>
<DataArray  type="Float64"  NumberOfComponents="3"  format="ascii">-2 -2 0  -1.8 -2 0  -1.6 -2 0  -1.4 -2 0  -1.2 -2 0  -1 -2 0  -0.8 -2 0  -0.6000000000000001 -2 0  -0.3999999999999999 -2 0  -0.2 -2 0  0 -2 0  0.2000000000000002 -2 0  0.3999999999999999 -2 0  0.6000000000000001 -2 0  0.7999999999999998 -2 0  1 -2 0  1.2 -2 0  1.4 -2 0  1.6 -2 0  1.8 -2 0  2 -2 0  -2 -1.8 0  -1.8 -1.8 0  -1.6 -1.8 0  -1.4 -1.8 0  -1.2 -1.8 0  -1 -1.8 0  -0.8 -1.8 0  -0.6000000000000001 -1.8 0  -0.3999999999999999 -1.8 0  -0.2 -1.8 0  0 -1.8 0  0.2000000000000002 -1.8 0  0.3999999999999999 -1.8 0  0.6000000000000001 -1.8 0  0.7999999999999998 -1.8 0  1 -1.8 0  1.2 -1.8 0  1.4 -1.8 0  1.6 -1.8 0  1.8 -1.8 0  2 -1.8 0  -2 -1.6 0  -1.8 -1.6 0  -1.6 -1.6 0  -1.4 -1.6 0  -1.2 -1.6 0  -1 -1.6 0  -0.8 -1.6 0  -0.6000000000000001 -1.6 0  -0.3999999999999999 -1.6 0  -0.2 -1.6 0  0 -1.6 0  0.2000000000000002 -1.6 0  0.3999999999999999 -1.6 0  0.6000000000000001 -1.6 0  0.7999999999999998 -1.6 0  1 -1.6 0  1.2 -1.6 0  1.4 -1.6 0  1.6 -1.6 0  1.8 -1.6 0  2 -1.6 0  -2 -1.4 0  -1.8 -1.4 0  -1.6 -1.4 0  -1.4 -1.4 0  -1.2 -1.4 0  -1 -1.4 0  -0.8 -1.4 0  -0.6000000000000001 -1.4 0  -0.3999999999999999 -1.4 0  -0.2 -1.4 0  0 -1.4 0  0.2000000000000002 -1.4 0  0.3999999999999999 -1.4 0  0.6000000000000001 -1.4 0  0.7999999999999998 -1.4 0  1 -1.4 0  1.2 -1.4 0  1.4 -1.4 0  1.6 -1.4 0  1.8 -1.4 0  2 -1.4 0  -2 -1.2 0  -1.8 -1.2 0  -1.6 -1.2 0  -1.4 -1.2 0  -1.2 -1.2 0  -1 -1.2 0  -0.8 -1.2 0  -0.6000000000000001 -1.2 0  -0.3999999999999999 -1.2 0  -0.2 -1.2 0  0 -1.2 0  0.2000000000000002 -1.2 0  0.3999999999999999 -1.2 0  0.6000000000000001 -1.2 0  0.7999999999999998 -1.2 0  1 -1.2 0  1.2 -1.2 0  1.4 -1.2 0  1.6 -1.2 0  1.8 -1.2 0  2 -1.2 0  -2 -1 0  -1.8 -1 0  -1.6 -1 0  -1.4 -1 0  -1.2 -1 0  -1 -1 0  -0.8 -1 0  -0.6000000000000001 -1 0  -0.3999999999999999 -1 0  -0.2 -1 0  0 -1 0  0.2000000000000002 -1 0  0.3999999999999999 -1 0  0.6000000000000001 -1 0  0.7999999999999998 -1 0  1 -1 0  1.2 -1 0  1.4 -1 0  1.6 -1 0  1.8 -1 0  2 -1 0  -2 -0.8 0  -1.8 -0.8 0  -1.6 -0.8 0  -1.4 -0.8 0  -1.2 -0.8 0  -1 -0.8 0  -0.8 -0.8 0  -0.6000000000000001 -0.8 0  -0.3999999999999999 -0.8 0  -0.2 -0.8 0  0 -0.8 0  0.2000000000000002 -0.8 0  0.3999999999999999 -0.8 0  0.6000000000000001 -0.8 0  0.7999999999999998 -0.8 0  1 -0.8 0  1.2 -0.8 0  1.4 -0.8 0  1.6 -0.8 0  1.8 -0.8 0  2 -0.8 0  -2 -0.6000000000000001 0  -1.8 -0.6000000000000001 0  -1.6 -0.6000000000000001 0  -1.4 -0.6000000000000001 0  -1.2 -0.6000000000000001 0  -1 -0.6000000000000001 0  -0.8 -0.6000000000000001 0  -0.6000000000000001 -0.6000000000000001 0  -0.3999999999999999 -0.6000000000000001 0  -0.2 -0.6000000000000001 0  0 -0.6000000000000001 0  0.2000000000000002 -0.6000000000000001 0  0.3999999999999999 -0.6000000000000001 0  0.6000000000000001 -0.6000000000000001 0  0.7999999999999998 -0.6000000000000001 0  1 -0.6000000000000001 0  1.2 -0.6000000000000001 0  1.4 -0.6000000000000001 0  1.6 -0.6000000000000001 0  1.8 -0.6000000000000001 0  2 -0.6000000000000001 0  -2 -0.3999999999999999 0  -1.8 -0.3999999999999999 0  -1.6 -0.3999999999999999 0  -1.4 -0.3999999999999999 0  -1.2 -0.3999999999999999 0  -1 -0.3999999999999999 0  -0.8 -0.3999999999999999 0  -0.6000000000000001 -0.3999999999999999 0  -0.3999999999999999 -0.3999999999999999 0  -0.2 -0.3999999999999999 0  0 -0.3999999999999999 0  0.2000000000000002 -0.3999999999999999 0  0.3999999999999999 -0.3999999999999999 0  0.6000000000000001 -0.3999999999999999 0  0.7999999999999998 -0.3999999999999999 0  1 -0.3999999999999999 0  1.2 -0.3999999999999999 0  1.4 -0.3999999999999999 0  1.6 -0.3999999999999999 0  1.8 -0.3999999999999999 0  2 -0.3999999999999999 0  -2 -0.2 0  -1.8 -0.2 0  -1.6 -0.2 0  -1.4 -0.2 0  -1.2 -0.2 0  -1 -0.2 0  -0.8 -0.2 0  -0.6000000000000001 -0.2 0  -0.3999999999999999 -0.2 0  -0.2 -0.2 0  0 -0.2 0  0.2000000000000002 -0.2 0  0.3999999999999999 -0.2 0  0.6000000000000001 -0.2 0  0.7999999999999998 -0.2 0  1 -0.2 0  1.2 -0.2 0  1.4 -0.2 0  1.6 -0.2 0  1.8 -0.2 0  2 -0.2 0  -2 0 0  -1.8 0 0  -1.6 0 0  -1.4 0 0  -1.2 0 0  -1 0 0  -0.8 0 0  -0.6000000000000001 0 0  -0.3999999999999999 0 0  -0.2 0 0  0 0 0  0.2000000000000002 0 0  0.3999999999999999 0 0  0.6000000000000001 0 0  0.7999999999999998 0 0  1 0 0  1.2 0 0  1.4 0 0  1.6 0 0  1.8 0 0  2 0 0  -2 0.2000000000000002 0  -1.8 0.2000000000000002 0  -1.6 0.2000000000000002 0  -1.4 0.2000000000000002 0  -1.2 0.2000000000000002 0  -1 0.2000000000000002 0  -0.8 0.2000000000000002 0  -0.6000000000000001 0.2000000000000002 0  -0.3999999999999999 0.2000000000000002 0  -0.2 0.2000000000000002 0  0 0.2000000000000002 0  0.2000000000000002 0.2000000000000002 0  0.3999999999999999 0.2000000000000002 0  0.6000000000000001 0.2000000000000002 0  0.7999999999999998 0.2000000000000002 0  1 0.2000000000000002 0  1.2 0.2000000000000002 0  1.4 0.2000000000000002 0  1.6 0.2000000000000002 0  1.8 0.2000000000000002 0  2 0.2000000000000002 0  -2 0.3999999999999999 0  -1.8 0.3999999999999999 0  -1.6 0.3999999999999999 0  -1.4 0.3999999999999999 0  -1.2 0.3999999999999999 0  -1 0.3999999999999999 0  -0.8 0.3999999999999999 0  -0.6000000000000001 0.3999999999999999 0  -0.3999999999999999 0.3999999999999999 0  -0.2 0.3999999999999999 0  0 0.3999999999999999 0  0.2000000000000002 0.3999999999999999 0  0.3999999999999999 0.3999999999999999 0  0.6000000000000001 0.3999999999999999 0  0.7999999999999998 0.3999999999999999 0  1 0.3999999999999999 0  1.2 0.3999999999999999 0  1.4 0.3999999999999999 0  1.6 0.3999999999999999 0  1.8 0.3999999999999999 0  2 0.3999999999999999 0  -2 0.6000000000000001 0  -1.8 0.6000000000000001 0  -1.6 0.6000000000000001 0  -1.4 0.6000000000000001 0  -1.2 0.6000000000000001 0  -1 0.6000000000000001 0  -0.8 0.6000000000000001 0  -0.6000000000000001 0.6000000000000001 0  -0.3999999999999999 0.6000000000000001 0  -0.2 0.6000000000000001 0  0 0.6000000000000001 0  0.2000000000000002 0.6000000000000001 0  0.3999999999999999 0.6000000000000001 0  0.6000000000000001 0.6000000000000001 0  0.7999999999999998 0.6000000000000001 0  1 0.6000000000000001 0  1.2 0.6000000000000001 0  1.4 0.6000000000000001 0  1.6 0.6000000000000001 0  1.8 0.6000000000000001 0  2 0.6000000000000001 0  -2 0.7999999999999998 0  -1.8 0.7999999999999998 0  -1.6 0.7999999999999998 0  -1.4 0.7999999999999998 0  -1.2 0.7999999999999998 0  -1 0.7999999999999998 0  -0.8 0.7999999999999998 0  -0.6000000000000001 0.7999999999999998 0  -0.3999999999999999 0.7999999999999998 0  -0.2 0.7999999999999998 0  0 0.7999999999999998 0  0.2000000000000002 0.7999999999999998 0  0.3999999999999999 0.7999999999999998 0  0.6000000000000001 0.7999999999999998 0  0.7999999999999998 0.7999999999999998 0  1 0.7999999999999998 0  1.2 0.7999999999999998 0  1.4 0.7999999999999998 0  1.6 0.7999999999999998 0  1.8 0.7999999999999998 0  2 0.7999999999999998 0  -2 1 0  -1.8 1 0  -1.6 1 0  -1.4 1 0  -1.2 1 0  -1 1 0  -0.8 1 0  -0.6000000000000001 1 0  -0.3999999999999999 1 0  -0.2 1 0  0 1 0  0.2000000000000002 1 0  0.3999999999999999 1 0  0.6000000000000001 1 0  0.7999999999999998 1 0  1 1 0  1.2 1 0  1.4 1 0  1.6 1 0  1.8 1 0  2 1 0  -2 1.2 0  -1.8 1.2 0  -1.6 1.2 0  -1.4 1.2 0  -1.2 1.2 0  -1 1.2 0  -0.8 1.2 0  -0.6000000000000001 1.2 0  -0.3999999999999999 1.2 0  -0.2 1.2 0  0 1.2 0  0.2000000000000002 1.2 0  0.3999999999999999 1.2 0  0.6000000000000001 1.2 0  0.7999999999999998 1.2 0  1 1.2 0  1.2 1.2 0  1.4 1.2 0  1.6 1.2 0  1.8 1.2 0  2 1.2 0  -2 1.4 0  -1.8 1.4 0  -1.6 1.4 0  -1.4 1.4 0  -1.2 1.4 0  -1 1.4 0  -0.8 1.4 0  -0.6000000000000001 1.4 0  -0.3999999999999999 1.4 0  -0.2 1.4 0  0 1.4 0  0.2000000000000002 1.4 0  0.3999999999999999 1.4 0  0.6000000000000001 1.4 0  0.7999999999999998 1.4 0  1 1.4 0  1.2 1.4 0  1.4 1.4 0  1.6 1.4 0  1.8 1.4 0  2 1.4 0  -2 1.6 0  -1.8 1.6 0  -1.6 1.6 0  -1.4 1.6 0  -1.2 1.6 0  -1 1.6 0  -0.8 1.6 0  -0.6000000000000001 1.6 0  -0.3999999999999999 1.6 0  -0.2 1.6 0  0 1.6 0  0.2000000000000002 1.6 0  0.3999999999999999 1.6 0  0.6000000000000001 1.6 0  0.7999999999999998 1.6 0  1 1.6 0  1.2 1.6 0  1.4 1.6 0  1.6 1.6 0  1.8 1.6 0  2 1.6 0  -2 1.8 0  -1.8 1.8 0  -1.6 1.8 0  -1.4 1.8 0  -1.2 1.8 0  -1 1.8 0  -0.8 1.8 0  -0.6000000000000001 1.8 0  -0.3999999999999999 1.8 0  -0.2 1.8 0  0 1.8 0  0.2000000000000002 1.8 0  0.3999999999999999 1.8 0  0.6000000000000001 1.8 0  0.7999999999999998 1.8 0  1 1.8 0  1.2 1.8 0  1.4 1.8 0  1.6 1.8 0  1.8 1.8 0  2 1.8 0  -2 2 0  -1.8 2 0  -1.6 2 0  -1.4 2 0  -1.2 2 0  -1 2 0  -0.8 2 0  -0.6000000000000001 2 0  -0.3999999999999999 2 0  -0.2 2 0  0 2 0  0.2000000000000002 2 0  0.3999999999999999 2 0  0.6000000000000001 2 0  0.7999999999999998 2 0  1 2 0  1.2 2 0  1.4 2 0  1.6 2 0  1.8 2 0  2 2 0  </DataArray>
</Points>
<Cells>
[...]
<PointData  Scalars="f_8"> 
<DataArray  type="Float64"  Name="f_8"  format="ascii">6.8984420171684050e-03  0.0000000000000000e+00  0.0000000000000000e+00  0.0000000000000000e+00  0.0000000000000000e+00  0.0000000000000000e+00  0.0000000000000000e+00  0.0000000000000000e+00  0.0000000000000000e+00  0.0000000000000000e+00  0.0000000000000000e+00  0.0000000000000000e+00  0.0000000000000000e+00  0.0000000000000000e+00  0.0000000000000000e+00  0.0000000000000000e+00  0.0000000000000000e+00  0.0000000000000000e+00  0.0000000000000000e+00  0.0000000000000000e+00  0.0000000000000000e+00  7.3142147193726692e-02  7.2553224217090775e-02  7.1572648434394176e-02  7.0181211982821928e-02  6.8370281479285422e-02  6.6144219102475629e-02  6.3516744857200658e-02  6.0508360831146295e-02  5.7144415665480758e-02  5.3453572695157381e-02  4.9466554803058289e-02  4.5215102970971754e-02  4.0731121560889719e-02  3.6046002180672020e-02  3.1190126113993910e-02  2.6192546871872217e-02  2.1080852224444821e-02  1.5881201100866531e-02  1.0618526617147669e-02  5.3168937048881509e-03  0.0000000000000000e+00  1.4008326622597644e-01  1.3952657934188778e-01  1.3800873070287545e-01  1.3555999088074999e-01  1.3221388797077746e-01  1.2800962002907992e-01  1.2299272840972145e-01  1.1721473300554466e-01  1.1073216761319048e-01  1.0360529723453690e-01  9.5896709498348442e-02  8.7669918604813601e-02  7.8988084985389284e-02  6.9912927759862062e-02  6.0503885066533314e-02  5.0817557009415606e-02  4.0907446327545581e-02  3.0823992743110804e-02  2.0614878429196001e-02  1.0325564323109214e-02  0.0000000000000000e+00  1.9921710043969415e-01  1.9849152805533538e-01  1.9641050642442742e-01  1.9300060838796484e-01  1.8830274955566967e-01  1.8237067960666734e-01  1.7526936997642392e-01  1.6707320023164743e-01  1.5786396019611201e-01  1.4772874225529337e-01  1.3675782349332735e-01  1.2504264363407855e-01  1.1267397920500204e-01  9.9740400866789980e-02  8.6327081929364849e-02  7.2515003520379026e-02  5.8380577224617057e-02  4.3995680696532924e-02  2.9428077128360701e-02  1.4742166847822294e-02  0.0000000000000000e+00  2.4802683246682164e-01  2.4715522267583839e-01  2.4459910075472499e-01  2.4038866065320855e-01  2.3457241463698050e-01  2.2721556340857416e-01  2.1839793452572889e-01  2.0821158197590098e-01  1.9675815406721953e-01  1.8414615008838181e-01  1.7048819340162769e-01  1.5589844798915542e-01  1.4049029684510492e-01  1.2437438472654225e-01  1.0765710586723608e-01  9.0439590825282329e-02  7.2817217354219060e-02  5.4879639805624228e-02  3.6711301830793491e-02  1.8392369709356628e-02  0.0000000000000000e+00  2.8581031013826635e-01  2.8482582765006481e-01  2.8190108556149063e-01  2.7706999336789684e-01  2.7038753879314831e-01  2.6192802557126438e-01  2.5178276050115073e-01  2.4005730980471143e-01  2.2686846315205081e-01  2.1234105555678601e-01  1.9660480161227320e-01  1.7979129267486710e-01  1.6203129565454277e-01  1.4345247267354000e-01  1.2417761511377522e-01  1.0432345498366553e-01  8.4000082844591914e-02  6.3310966639564398e-02  4.2353531585843616e-02  2.1220229679904678e-02  0.0000000000000000e+00  3.1322928655118143e-01  3.1216189384464432e-01  3.0896858402533922e-01  3.0368608791687152e-01  2.9637421138416065e-01  2.8711394085838432e-01  2.7600493892381989e-01  2.6316255889572926e-01  2.4871452995670709e-01  2.3279747861112063e-01  2.1555345728580436e-01  1.9712664665198543e-01  1.7766038498683442e-01  1.5729465645526253e-01  1.3616414184611714e-01  1.1439690168076454e-01  9.2113724628277938e-02  6.9428135861679813e-02  4.6447022459583480e-02  2.3271798206066525e-02  0.0000000000000000e+00  3.3180915302480107e-01  3.3068345996817144e-01  3.2730615933526613e-01  3.2171593840910517e-01  3.1397591027656641e-01  3.0417162304144951e-01  2.9240842217427632e-01  2.7880830107615046e-01  2.6350639949995686e-01  2.4664732501533876e-01  2.2838147845757936e-01  2.0886156006285653e-01  1.8823941912783482e-01  1.6666338743840212e-01  1.4427620675822525e-01  1.2121362510007998e-01  9.7603697340901199e-02  7.3566785158605749e-02  4.9216211472535978e-02  2.4659487686150894e-02  0.0000000000000000e+00  3.4337922747554861e-01  3.4221455640482573e-01  3.3872013305839743e-01  3.3293590606267592e-01  3.2492708686009819e-01  3.1478209797907969e-01  3.0260985190147666e-01  2.8853649960048861e-01  2.7270181337912547e-01  2.5525538489446725e-01  2.3635282538378255e-01  2.1615215088872985e-01  1.9481052107156288e-01  1.7248147695817184e-01  1.4931279204098610e-01  1.2544501443823700e-01  1.0101073732444370e-01  7.6134592869420051e-02  5.0933923734355076e-02  2.5520047974749098e-02  0.0000000000000000e+00  3.4958392139488503e-01  3.4839547343878813e-01  3.4483546464674114e-01  3.3894456531166317e-01  3.3078915456883656e-01  3.2045923596575782e-01  3.0806567161508636e-01  2.9373687615242888e-01  2.7761513778313818e-01  2.5985275031830057e-01  2.4060814642314388e-01  2.2004221809207580e-01  1.9831499599125943e-01  1.7558283570897948e-01  1.5199622756168263e-01  1.2769830925733702e-01  1.0282411954319698e-01  7.7500588250969185e-02  5.1847216224497734e-02  2.5977359714724268e-02  0.0000000000000000e+00  3.5153664188822004e-01  3.5033737149808053e-01  3.4675346458277090e-01  3.4082586720312047e-01  3.3262137387011509e-01  3.2223053330275175e-01  3.0976486883628429e-01  2.9535355532196028e-01  2.7913972059715481e-01  2.6127655635315733e-01  2.4192342963181787e-01  2.2124218199748924e-01  1.9939378902349691e-01  1.7653552904181399e-01  1.5281877857189921e-01  1.2838751431606607e-01  1.0337756022052193e-01  7.7916575154330994e-02  5.2124734591703310e-02  2.6116020550480928e-02  0.0000000000000000e+00  3.4962541781186984e-01  3.4842842249073591e-01  3.4485977372768162e-01  3.3896025805841962e-01  3.3079637482955682e-01  3.2045825370810976e-01  3.0805689000561537e-01  2.9372083884911465e-01  2.7759253536940770e-01  2.5982442477555451e-01  2.4057509259137347e-01  2.2000558120000169e-01  1.9827606453926336e-01  1.7554302924646176e-01  1.5195707919874027e-01  1.2766144307012847e-01  1.0279122335332566e-01  7.7473382561985479e-02  5.1827420364459156e-02  2.5966656445786829e-02  0.0000000000000000e+00  3.4345111319503785e-01  3.4227232879269998e-01  3.3876359846853432e-01  3.3296503321424681e-01  3.2494201939464445e-01  3.1478317273190376e-01  3.0259762091959597e-01  2.8851175349324304e-01  2.7266560332666734e-01  2.5520904057846944e-01  2.3629796624493160e-01  2.1609068844525209e-01  1.9474465052908441e-01  1.7241365697103178e-01  1.4924571220883409e-01  1.2538155089458297e-01  1.0095389754856167e-01  7.6087451582302942e-02  5.0899552378090573e-02  2.5501440781825372e-02  0.0000000000000000e+00  3.3188768831464616e-01  3.3074846654412315e-01  3.2735731625865516e-01  3.2175299244201572e-01  3.1399870706272537e-01  3.0418015112821617e-01  2.9240286583117570e-01  2.7878909706404964e-01  2.6347429250139592e-01  2.4660341637184496e-01  2.2832726317107754e-01  2.0879894768039017e-01  1.8817073509705248e-01  1.6659135273458686e-01  1.4420389496818234e-01  1.2114439762106764e-01  9.7541118826087458e-02  7.3514522725380504e-02  4.9177922400636252e-02  2.4638701290381045e-02  0.0000000000000000e+00  3.1327733553747794e-01  3.1220617957861296e-01  3.0900858471527887e-01  3.0372105419482304e-01  2.9640323324321372e-01  2.8713603836707385e-01  2.7601916927275005e-01  2.6316813114981646e-01  2.4871091830942743e-01  2.3278452497777521e-01  2.1553145471143392e-01  1.9709639619915778e-01  1.7762322043743289e-01  1.5725243321452695e-01  1.3611918876282220e-01  1.1435193696512627e-01  9.2071739518651455e-02  6.9392252016855588e-02  4.6420331091198072e-02  2.3257190579260491e-02  0.0000000000000000e+00  2.8578089439261101e-01  2.8481344315916951e-01  2.8190481416453844e-01  2.7708817403539254e-01  2.7041789778444553e-01  2.6196784285762781e-01  2.5182905989855314e-01  2.4010705903164273e-01  2.2691876968613783e-01  2.1238934462537801e-01  1.9664896385483141e-01  1.7982979090527748e-01  1.6206322266163756e-01  1.4347755503201096e-01  1.2419616140510943e-01  1.0433625048469027e-01  8.4008236438989109e-02  6.3315719234260881e-02  4.2356038446649542e-02  2.1221331614660305e-02  0.0000000000000000e+00  2.4787409166651897e-01  2.4705054737137150e-01  2.4454068814874413e-01  2.4037329800035753e-01  2.3459571763066356e-01  2.2727225639150050e-01  2.1848215244715105e-01  2.0831717492939422e-01  1.9687897659979858e-01  1.8427631894735094e-01  1.7062229913669583e-01  1.5603170808292427e-01  1.4061864095559401e-01  1.2449446622676939e-01  1.0776623808841372e-01  9.0535611096290936e-02  7.2898286860706624e-02  5.4943992197157704e-02  3.6756958069187398e-02  1.8416840514476878e-02  0.0000000000000000e+00  1.9891570181973969e-01  1.9827490511721074e-01  1.9627481217466117e-01  1.9293998614133326e-01  1.8830976983830189e-01  1.8243678606790031e-01  1.7538530308965741e-01  1.6722938549878394e-01  1.5805085243800066e-01  1.4793711751476166e-01  1.3697900901813725e-01  1.2526867608015060e-01  1.1289768224479657e-01  9.9955375909313707e-02  8.6527609517995943e-02  7.2695857937449190e-02  5.8536762639485533e-02  4.4122103593798617e-02  2.9519176484216109e-02  1.4791530246047326e-02  0.0000000000000000e+00  1.3965546863444420e-01  1.3921747438100793e-01  1.3780972135563407e-01  1.3546032169661557e-01  1.3220174382311017e-01  1.2807275848510308e-01  1.2311887153069243e-01  1.1739184102164002e-01  1.1094865034314147e-01  1.0385018244955235e-01  9.6159768077291236e-02  8.7941737134098572e-02  7.9260073317965904e-02  7.0177249581149445e-02  6.0753302328440548e-02  5.1045183398646346e-02  4.1106410381831417e-02  3.0987017899352390e-02  2.0733795833178238e-02  1.0390786212408866e-02  0.0000000000000000e+00  7.2694974316708627e-02  7.2245475118076954e-02  7.1382282606069505e-02  7.0086020581336839e-02  6.8352925378890830e-02  6.6190492925316119e-02  6.3614523778814644e-02  6.0646978612039763e-02  5.7314311202884612e-02  5.3646096962529928e-02  4.9673864093667114e-02  4.5430086054150338e-02  4.0947322503176439e-02  3.6257509926911624e-02  3.1391407906911438e-02  2.6378205763451908e-02  2.1245289150914178e-02  1.6018158426351688e-02  1.0720481034010538e-02  5.3742490364172609e-03  0.0000000000000000e+00  6.6957079849325370e-03  0.0000000000000000e+00  0.0000000000000000e+00  0.0000000000000000e+00  0.0000000000000000e+00  0.0000000000000000e+00  0.0000000000000000e+00  0.0000000000000000e+00  0.0000000000000000e+00  0.0000000000000000e+00  0.0000000000000000e+00  0.0000000000000000e+00  0.0000000000000000e+00  0.0000000000000000e+00  0.0000000000000000e+00  0.0000000000000000e+00  0.0000000000000000e+00  0.0000000000000000e+00  0.0000000000000000e+00  0.0000000000000000e+00  0.0000000000000000e+00  </DataArray> 
</PointData> 
</Piece>
</UnstructuredGrid>
</VTKFile>