<?xml version="1.0"?>
<VTKFile type="UnstructuredGrid"  version="0.1"  >
<UnstructuredGrid>
<Piece  NumberOfPoints="441" NumberOfCells="800">
<Points>
<DataArray  type="Float64"  NumberOfComponents="3"  format="ascii">-2 -2 0  -1.8 -2 0  -1.6 -2 0  -1.4 -2 0  -1.2 -2 0  -1 -2 0  -0.8 -2 0  -0.6000000000000001 -2 0  -0.3999999999999999 -2 0  -0.2 -2 0  0 -2 0  0.2000000000000002 -2 0  0.3999999999999999 -2 0  0.6000000000000001 -2 0  0.7999999999999998 -2 0  1 -2 0  1.2 -2 0  1.4 -2 0  1.6 -2 0  1.8 -2 0  2 -2 0  -2 -1.8 0  -1.8 -1.8 0  -1.6 -1.8 0  -1.4 -1.8 0  -1.2 -1.8 0  -1 -1.8 0  -0.8 -1.8 0  -0.6000000000000001 -1.8 0  -0.3999999999999999 -1.8 0  -0.2 -1.8 0  0 -1.8 0  0.2000000000000002 -1.8 0  0.3999999999999999 -1.8 0  0.6000000000000001 -1.8 0  0.7999999999999998 -1.8 0  1 -1.8 0  1.2 -1.8 0  1.4 -1.8 0  1.6 -1.8 0  1.8 -1.8 0  2 -1.8 0  -2 -1.6 0  -1.8 -1.6 0  -1.6 -1.6 0  -1.4 -1.6 0  -1.2 -1.6 0  -1 -1.6 0  -0.8 -1.6 0  -0.6000000000000001 -1.6 0  -0.3999999999999999 -1.6 0  -0.2 -1.6 0  0 -1.6 0  0.2000000000000002 -1.6 0  0.3999999999999999 -1.6 0  0.6000000000000001 -1.6 0  0.7999999999999998 -1.6 0  1 -1.6 0  1.2 -1.6 0  1.4 -1.6 0  1.6 -1.6 0  1.8 -1.6 0  2 -1.6 0  -2 -1.4 0  -1.8 -1.4 0  -1.6 -1.4 0  -1.4 -1.4 0  -1.2 -1.4 0  -1 -1.4 0  -0.8 -1.4 0  -0.6000000000000001 -1.4 0  -0.3999999999999999 -1.4 0  -0.2 -1.4 0  0 -1.4 0  0.2000000000000002 -1.4 0  0.3999999999999999 -1.4 0  0.6000000000000001 -1.4 0  0.7999999999999998 -1.4 0  1 -1.4 0  1.2 -1.4 0  1.4 -1.4 0  1.6 -1.4 0  1.8 -1.4 0  2 -1.4 0  -2 -1.2 0  -1.8 -1.2 0  -1.6 -1.2 0  -1.4 -1.2 0  -1.2 -1.2 0  -1 -1.2 0  -0.8 -1.2 0  -0.6000000000000001 -1.2 0  -0.3999999999999999 -1.2 0  -0.2 -1.2 0  0 -1.2 0  0.2000000000000002 -1.2 0  0.3999999999999999 -1.2 0  0.6000000000000001 -1.2 0  0.7999999999999998 -1.2 0  1 -1.2 0  1.2 -1.2 0  1.4 -1.2 0  1.6 -1.2 0  1.8 -1.2 0  2 -1.2 0  -2 -1 0  -1.8 -1 0  -1.6 -1 0  -1.4 -1 0  -1.2 -1 0  -1 -1 0  -0.8 -1 0  -0.6000000000000001 -1 0  -0.3999999999999999 -1 0  -0.2 -1 0  0 -1 0  0.2000000000000002 -1 0  0.3999999999999999 -1 0  0.6000000000000001 -1 0  0.7999999999999998 -1 0  1 -1 0  1.2 -1 0  1.4 -1 0  1.6 -1 0  1.8 -1 0  2 -1 0  -2 -0.8 0  -1.8 -0.8 0  -1.6 -0.8 0  -1.4 -0.8 0  -1.2 -0.8 0  -1 -0.8 0  -0.8 -0.8 0  -0.6000000000000001 -0.8 0  -0.3999999999999999 -0.8 0  -0.2 -0.8 0  0 -0.8 0  0.2000000000000002 -0.8 0  0.3999999999999999 -0.8 0  0.6000000000000001 -0.8 0  0.7999999999999998 -0.8 0  1 -0.8 0  1.2 -0.8 0  1.4 -0.8 0  1.6 -0.8 0  1.8 -0.8 0  2 -0.8 0  -2 -0.6000000000000001 0  -1.8 -0.6000000000000001 0  -1.6 -0.6000000000000001 0  -1.4 -0.6000000000000001 0  -1.2 -0.6000000000000001 0  -1 -0.6000000000000001 0  -0.8 -0.6000000000000001 0  -0.6000000000000001 -0.6000000000000001 0  -0.3999999999999999 -0.6000000000000001 0  -0.2 -0.6000000000000001 0  0 -0.6000000000000001 0  0.2000000000000002 -0.6000000000000001 0  0.3999999999999999 -0.6000000000000001 0  0.6000000000000001 -0.6000000000000001 0  0.7999999999999998 -0.6000000000000001 0  1 -0.6000000000000001 0  1.2 -0.6000000000000001 0  1.4 -0.6000000000000001 0  1.6 -0.6000000000000001 0  1.8 -0.6000000000000001 0  2 -0.6000000000000001 0  -2 -0.3999999999999999 0  -1.8 -0.3999999999999999 0  -1.6 -0.3999999999999999 0  -1.4 -0.3999999999999999 0  -1.2 -0.3999999999999999 0  -1 -0.3999999999999999 0  -0.8 -0.3999999999999999 0  -0.6000000000000001 -0.3999999999999999 0  -0.3999999999999999 -0.3999999999999999 0  -0.2 -0.3999999999999999 0  0 -0.3999999999999999 0  0.2000000000000002 -0.3999999999999999 0  0.3999999999999999 -0.3999999999999999 0  0.6000000000000001 -0.3999999999999999 0  0.7999999999999998 -0.3999999999999999 0  1 -0.3999999999999999 0  1.2 -0.3999999999999999 0  1.4 -0.3999999999999999 0  1.6 -0.3999999999999999 0  1.8 -0.3999999999999999 0  2 -0.3999999999999999 0  -2 -0.2 0  -1.8 -0.2 0  -1.6 -0.2 0  -1.4 -0.2 0  -1.2 -0.2 0  -1 -0.2 0  -0.8 -0.2 0  -0.6000000000000001 -0.2 0  -0.3999999999999999 -0.2 0  -0.2 -0.2 0  0 -0.2 0  0.2000000000000002 -0.2 0  0.3999999999999999 -0.2 0  0.6000000000000001 -0.2 0  0.7999999999999998 -0.2 0  1 -0.2 0  1.2 -0.2 0  1.4 -0.2 0  1.6 -0.2 0  1.8 -0.2 0  2 -0.2 0  -2 0 0  -1.8 0 0  -1.6 0 0  -1.4 0 0  -1.2 0 0  -1 0 0  -0.8 0 0  -0.6000000000000001 0 0  -0.3999999999999999 0 0  -0.2 0 0  0 0 0  0.2000000000000002 0 0  0.3999999999999999 0 0  0.6000000000000001 0 0  0.7999999999999998 0 0  1 0 0  1.2 0 0  1.4 0 0  1.6 0 0  1.8 0 0  2 0 0  -2 0.2000000000000002 0  -1.8 0.2000000000000002 0  -1.6 0.2000000000000002 0  -1.4 0.2000000000000002 0  -1.2 0.2000000000000002 0  -1 0.2000000000000002 0  -0.8 0.2000000000000002 0  -0.6000000000000001 0.2000000000000002 0  -0.3999999999999999 0.2000000000000002 0  -0.2 0.2000000000000002 0  0 0.2000000000000002 0  0.2000000000000002 0.2000000000000002 0  0.3999999999999999 0.2000000000000002 0  0.6000000000000001 0.2000000000000002 0  0.7999999999999998 0.2000000000000002 0  1 0.2000000000000002 0  1.2 0.2000000000000002 0  1.4 0.2000000000000002 0  1.6 0.2000000000000002 0  1.8 0.2000000000000002 0  2 0.2000000000000002 0  -2 0.3999999999999999 0  -1.8 0.3999999999999999 0  -1.6 0.3999999999999999 0  -1.4 0.3999999999999999 0  -1.2 0.3999999999999999 0  -1 0.3999999999999999 0  -0.8 0.3999999999999999 0  -0.6000000000000001 0.3999999999999999 0  -0.3999999999999999 0.3999999999999999 0  -0.2 0.3999999999999999 0  0 0.3999999999999999 0  0.2000000000000002 0.3999999999999999 0  0.3999999999999999 0.3999999999999999 0  0.6000000000000001 0.3999999999999999 0  0.7999999999999998 0.3999999999999999 0  1 0.3999999999999999 0  1.2 0.3999999999999999 0  1.4 0.3999999999999999 0  1.6 0.3999999999999999 0  1.8 0.3999999999999999 0  2 0.3999999999999999 0  -2 0.6000000000000001 0  -1.8 0.6000000000000001 0  -1.6 0.6000000000000001 0  -1.4 0.6000000000000001 0  -1.2 0.6000000000000001 0  -1 0.6000000000000001 0  -0.8 0.6000000000000001 0  -0.6000000000000001 0.6000000000000001 0  -0.3999999999999999 0.6000000000000001 0  -0.2 0.6000000000000001 0  0 0.6000000000000001 0  0.2000000000000002 0.6000000000000001 0  0.3999999999999999 0.6000000000000001 0  0.6000000000000001 0.6000000000000001 0  0.7999999999999998 0.6000000000000001 0  1 0.6000000000000001 0  1.2 0.6000000000000001 0  1.4 0.6000000000000001 0  1.6 0.6000000000000001 0  1.8 0.6000000000000001 0  2 0.6000000000000001 0  -2 0.7999999999999998 0  -1.8 0.7999999999999998 0  -1.6 0.7999999999999998 0  -1.4 0.7999999999999998 0  -1.2 0.7999999999999998 0  -1 0.7999999999999998 0  -0.8 0.7999999999999998 0  -0.6000000000000001 0.7999999999999998 0  -0.3999999999999999 0.7999999999999998 0  -0.2 0.7999999999999998 0  0 0.7999999999999998 0  0.2000000000000002 0.7999999999999998 0  0.3999999999999999 0.7999999999999998 0  0.6000000000000001 0.7999999999999998 0  0.7999999999999998 0.7999999999999998 0  1 0.7999999999999998 0  1.2 0.7999999999999998 0  1.4 0.7999999999999998 0  1.6 0.7999999999999998 0  1.8 0.7999999999999998 0  2 0.7999999999999998 0  -2 1 0  -1.8 1 0  -1.6 1 0  -1.4 1 0  -1.2 1 0  -1 1 0  -0.8 1 0  -0.6000000000000001 1 0  -0.3999999999999999 1 0  -0.2 1 0  0 1 0  0.2000000000000002 1 0  0.3999999999999999 1 0  0.6000000000000001 1 0  0.7999999999999998 1 0  1 1 0  1.2 1 0  1.4 1 0  1.6 1 0  1.8 1 0  2 1 0  -2 1.2 0  -1.8 1.2 0  -1.6 1.2 0  -1.4 1.2 0  -1.2 1.2 0  -1 1.2 0  -0.8 1.2 0  -0.6000000000000001 1.2 0  -0.3999999999999999 1.2 0  -0.2 1.2 0  0 1.2 0  0.2000000000000002 1.2 0  0.3999999999999999 1.2 0  0.6000000000000001 1.2 0  0.7999999999999998 1.2 0  1 1.2 0  1.2 1.2 0  1.4 1.2 0  1.6 1.2 0  1.8 1.2 0  2 1.2 0  -2 1.4 0  -1.8 1.4 0  -1.6 1.4 0  -1.4 1.4 0  -1.2 1.4 0  -1 1.4 0  -0.8 1.4 0  -0.6000000000000001 1.4 0  -0.3999999999999999 1.4 0  -0.2 1.4 0  0 1.4 0  0.2000000000000002 1.4 0  0.3999999999999999 1.4 0  0.6000000000000001 1.4 0  0.7999999999999998 1.4 0  1 1.4 0  1.2 1.4 0  1.4 1.4 0  1.6 1.4 0  1.8 1.4 0  2 1.4 0  -2 1.6 0  -1.8 1.6 0  -1.6 1.6 0  -1.4 1.6 0  -1.2 1.6 0  -1 1.6 0  -0.8 1.6 0  -0.6000000000000001 1.6 0  -0.3999999999999999 1.6 0  -0.2 1.6 0  0 1.6 0  0.2000000000000002 1.6 0  0.3999999999999999 1.6 0  0.6000000000000001 1.6 0  0.7999999999999998 1.6 0  1 1.6 0  1.2 1.6 0  1.4 1.6 0  1.6 1.6 0  1.8 1.6 0  2 1.6 0  -2 1.8 0  -1.8 1.8 0  -1.6 1.8 0  -1.4 1.8 0  -1.2 1.8 0  -1 1.8 0  -0.8 1.8 0  -0.6000000000000001 1.8 0  -0.3999999999999999 1.8 0  -0.2 1.8 0  0 1.8 0  0.2000000000000002 1.8 0  0.3999999999999999 1.8 0  0.6000000000000001 1.8 0  0.7999999999999998 1.8 0  1 1.8 0  1.2 1.8 0  1.4 1.8 0  1.6 1.8 0  1.8 1.8 0  2 1.8 0  -2 2 0  -1.8 2 0  -1.6 2 0  -1.4 2 0  -1.2 2 0  -1 2 0  -0.8 2 0  -0.6000000000000001 2 0  -0.3999999999999999 2 0  -0.2 2 0  0 2 0  0.2000000000000002 2 0  0.3999999999999999 2 0  0.6000000000000001 2 0  0.7999999999999998 2 0  1 2 0  1.2 2 0  1.4 2 0  1.6 2 0  1.8 2 0  2 2 0  </DataArray>
</Points>
<Cells>
[...]
<PointData  Scalars="f_8"> 
<DataArray  type="Float64"  Name="f_8"  format="ascii">2.0932895790138978e-01  1.8757984301261157e-01  1.4345303676113241e-01  9.4710971731970295e-02  5.4749630978724657e-02  2.8148201994911144e-02  1.3085339949497454e-02  5.5944739135491695e-03  2.2378530754694750e-03  8.5195148539268003e-04  3.1379612402474921e-04  1.1350280967593688e-04  4.0813381605110213e-05  1.4713973999797548e-05  5.3419749476438049e-06  1.9547804589970386e-06  7.2019185995464161e-07  2.6735462663803706e-07  1.0183449841277516e-07  4.4137709151476885e-08  2.9527729438469654e-08  2.0538125435495710e-01  1.8858528546065559e-01  1.4656992938069030e-01  9.7117237052058450e-02  5.5319619182662108e-02  2.7306189161636168e-02  1.1743185096937277e-02  4.3952816721715398e-03  1.4082393789975605e-03  3.6306652403118650e-04  5.6442504513399495e-05  -1.1158074365257567e-05  -1.5911182213342658e-05  -9.9010438387547823e-06  -4.9586897962710686e-06  -2.2365572453166147e-06  -9.4864465665610664e-07  -3.8733513864832788e-07  -1.5620503523837980e-07  -6.8094933405978084e-08  -4.5262771151164613e-08  2.0548528907585908e-01  1.8896934470907092e-01  1.4717173885769372e-01  9.7450382996832952e-02  5.5168683918080538e-02  2.6863034938643497e-02  1.1306487858289214e-02  4.1230489636099139e-03  1.3000811454742761e-03  3.5216814015498390e-04  8.1912530148318255e-05  1.7690736553735943e-05  5.1471445658828845e-06  2.7451587999968508e-06  1.7804421894269969e-06  1.0684250697471057e-06  5.7573980076427307e-07  2.8481538938741580e-07  1.3403225708758694e-07  6.6212884953459753e-08  4.7858962822745925e-08  2.0551238937560060e-01  1.8900776622036972e-01  1.4721024380601336e-01  9.7441649208777320e-02  5.5107532822587665e-02  2.6802541559895282e-02  1.1293672041493966e-02  4.1575837360935536e-03  1.3522302750742768e-03  3.9594780261867130e-04  1.0820186297168144e-04  2.9326199271150121e-05  8.3768565234198939e-06  2.4814709963847153e-06  6.4697203173205552e-07  6.9755287943431769e-08  -7.5462639915795591e-08  -8.1507924047803767e-08  -5.6819736488680615e-08  -3.6733259056498191e-08  -3.0818137470687486e-08  2.0551031742199244e-01  1.8900479344053817e-01  1.4720582055158779e-01  9.7435155466022674e-02  5.5103307533592938e-02  2.6807088537468365e-02  1.1306576570936099e-02  4.1709437313069142e-03  1.3589667849383466e-03  3.9516717453742670e-04  1.0336833481696742e-04  2.4131952600169471e-05  4.6685481458925965e-06  4.5676742840550921e-07  -2.0956291101782896e-07  -1.7828943080008137e-07  -8.0987829189530185e-08  -2.3194226619694276e-08  3.4940586287914243e-10  7.3758050925365314e-09  9.3603912244735973e-09  2.0551034362750756e-01  1.8900484302264620e-01  1.4720579012237250e-01  9.7435138243182562e-02  5.5103686198789616e-02  2.6807813974949312e-02  1.1306669531216772e-02  4.1694849671375864e-03  1.3562971923025812e-03  3.9256983485443889e-04  1.0184353625451423e-04  2.3790759641339755e-05  5.0367498081709548e-06  1.0145547993185069e-06  2.4492769915512389e-07  9.8682394073476134e-08  5.3985820156055458e-08  2.8348927428916353e-08  1.2607777039825790e-08  4.5353474677433572e-09  2.0376176047890766e-09  2.0551033955228820e-01  1.8900484316251809e-01  1.4720580810934106e-01  9.7435182444412863e-02  5.5103740565804693e-02  2.6807807652649521e-02  1.1306544340483522e-02  4.1693325523191500e-03  1.3563261921401770e-03  3.9288558915189160e-04  1.0233202036230027e-04  2.4238727768283274e-05  5.3081944744617951e-06  1.1051925513610565e-06  2.2509827301562088e-07  4.1239438736495621e-08  1.2500603569425002e-09  -6.2151425374199515e-09  -5.6501507443256653e-09  -3.8774467588131750e-09  -3.2850681692078381e-09  2.0551034671130236e-01  1.8900485005490680e-01  1.4720581410761041e-01  9.7435187912158674e-02  5.5103744754627287e-02  2.6807810683389544e-02  1.1306555168120970e-02  4.1693659554305424e-03  1.3563794936349389e-03  3.9292666017755708e-04  1.0232533486501630e-04  2.4180061454772365e-05  5.2261564480611511e-06  1.0341230888070482e-06  1.8238489926618916e-07  2.5172025968881724e-08  1.1981948183668809e-09  -2.8279596829990327e-10  6.1237219968303804e-10  1.0817953191031385e-09  1.3024199132814201e-09  2.0551034421195707e-01  1.8900484754651317e-01  1.4720581139277966e-01  9.7435184491127064e-02  5.5103740294152645e-02  2.6807805501211670e-02  1.1306549892697157e-02  4.1693598497826497e-03  1.3563698461790802e-03  3.9291210283814515e-04  1.0230975292150848e-04  2.4170798077405700e-05  5.2276377852995497e-06  1.0443374903747013e-06  1.9538879206330186e-07  3.5780238927654479e-08  7.3888000940949652e-09  2.0839714799346785e-09  6.9159529674699408e-10  1.2945364151419471e-10  -6.1926045813970639e-11  2.0551034474492105e-01  1.8900484803720277e-01  1.4720581191060050e-01  9.7435185174448782e-02  5.5103741287623978e-02  2.6807806876111999e-02  1.1306551564906930e-02  4.1693616206926933e-03  1.3563717097514903e-03  3.9291449928960777e-04  1.0231315734302661e-04  2.4174885138167174e-05  5.2311523916199533e-06  1.0460323237078932e-06  1.9500082647788674e-07  3.4068284381716406e-08  5.4236810753269671e-09  5.9153526983041766e-10  -1.2374548318528657e-10  -1.5852950162362921e-10  -1.4737874918405408e-10  2.0551034465206908e-01  1.8900484798560588e-01  1.4720581188608167e-01  9.7435185151963755e-02  5.5103741232742053e-02  2.6807806750871979e-02  1.1306551342303843e-02  4.1693613066026043e-03  1.3563713448671516e-03  3.9291410534445556e-04  1.0231267029197770e-04  2.4174194487524409e-05  5.2302545459809195e-06  1.0451170506857881e-06  1.9433869667369249e-07  3.3811325260380143e-08  5.5210356599791343e-09  8.6826267860760481e-10  1.6720214565544013e-10  7.5692418787852426e-11  7.5264886143927924e-11  2.0551034468712281e-01  1.8900484794425629e-01  1.4720581175767772e-01  9.7435184937291322e-02  5.5103740970630789e-02  2.6807806505781236e-02  1.1306551170029416e-02  4.1693612293371776e-03  1.3563713493340410e-03  3.9291415855849420e-04  1.0231274404512141e-04  2.4174285878231734e-05  5.2303828862878022e-06  1.0452937599090860e-06  1.9454034597254547e-07  3.3987480627675812e-08  5.6289338791074972e-09  8.9835466634454673e-10  1.3901793894690504e-10  1.4625533825216022e-11  -6.0657279698679937e-12  2.0551034452638073e-01  1.8900484819440827e-01  1.4720581253619966e-01  9.7435186174396116e-02  5.5103742352883386e-02  2.6807807651440901e-02  1.1306551854239573e-02  4.1693614631182945e-03  1.3563712939429267e-03  3.9291399233050710e-04  1.0231258304820473e-04  2.4174174088058709e-05  5.2303171669401341e-06  1.0452524018858296e-06  1.9450363730603582e-07  3.3947966177129984e-08  5.5909538786917178e-09  8.7045321536545034e-10  1.2642667264394619e-10  1.6507901735645992e-11  3.2493368231329364e-12  2.0551034686663147e-01  1.8900484751902710e-01  1.4720580826668100e-01  9.7435179557791782e-02  5.5103735886800433e-02  2.6807803481598814e-02  1.1306550598161637e-02  4.1693623229524194e-03  1.3563729888937501e-03  3.9291556621219104e-04  1.0231364701982965e-04  2.4174742340839152e-05  5.2305565963747156e-06  1.0453238872531289e-06  1.9451001194538200e-07  3.3939415283680672e-08  5.5853221961734478e-09  8.7009997880657642e-10  1.2853413686866235e-10  1.8543998431130215e-11  5.6444973716981165e-12  2.0551033383235623e-01  1.8900485305781761e-01  1.4720583303112095e-01  9.7435211115993708e-02  5.5103758251971127e-02  2.6807808257298730e-02  1.1306540474068533e-02  4.1693459986652456e-03  1.3563581745618530e-03  3.9290568399505735e-04  1.0230853203526267e-04  2.4172753742559041e-05  5.2301111951251857e-06  1.0454326587659048e-06  1.9471680999923696e-07  3.4096708792688045e-08  5.6761800359078675e-09  9.1450215145454929e-10  1.4762992162450928e-10  2.6151730323811811e-11  8.8849022798565369e-12  2.0551025745397186e-01  1.8900471900625943e-01  1.4720566252013542e-01  9.7435088961082966e-02  5.5103749936731054e-02  2.6807907844744246e-02  1.1306687222428839e-02  4.1694770485616412e-03  1.3564433380068089e-03  3.9294683746607254e-04  1.0232164397370344e-04  2.4173068034825773e-05  5.2267879660292610e-06  1.0423115045388116e-06  1.9271768868448947e-07  3.3044482580610972e-08  5.1951087341379683e-09  7.2011427676941784e-10  7.8335540041178300e-11  3.7893580858908845e-12  -6.5538201003873250e-13  2.0551242807738929e-01  1.8900651167072613e-01  1.4720677557790759e-01  9.7435213802666759e-02  5.5102975898814910e-02  2.6806726459169629e-02  1.1305638204759341e-02  4.1688324141819361e-03  1.3561813776787922e-03  3.9291310761168600e-04  1.0237422650981773e-04  2.4233761602691289e-05  5.2693657107856038e-06  1.0660098882546167e-06  2.0396346888482988e-07  3.7705435211781340e-08  6.8737916948467324e-09  1.2168499105297021e-09  1.6793785524930738e-10  -2.0552879976962482e-11  -3.9258459027858652e-11  2.0549436675287536e-01  1.8899454041885499e-01  1.4720364112501630e-01  9.7439753840890611e-02  5.5111051150958684e-02  2.6813728909119337e-02  1.1309241900606174e-02  4.1694029297181827e-03  1.3552426601683948e-03  3.9171955667553098e-04  1.0148432040035324e-04  2.3720142026866996e-05  5.0218059244247818e-06  9.6386786308254589e-07  1.6822258392956215e-07  2.7845903946398054e-08  5.4638990599885717e-09  1.8873511959123924e-09  1.0233577053668474e-09  6.4901213909887361e-10  4.7293421978021710e-10  2.0546432688597518e-01  1.8896324019928035e-01  1.4715984607253083e-01  9.7389907967017186e-02  5.5079495352366746e-02  2.6812403334490139e-02  1.1328589499171201e-02  4.1930926342673000e-03  1.3733068480116257e-03  4.0220820165553855e-04  1.0641870218048670e-04  2.5620627652585666e-05  5.5890617564812038e-06  1.0570680385448742e-06  1.3678103373759168e-07  -1.4919356819965964e-08  -2.3613967424684974e-08  -1.4239466818420612e-08  -7.2588464450515149e-09  -3.8153915268522899e-09  -2.5809230011785263e-09  2.0584643578376852e-01  1.8950874697492043e-01  1.4760857846291955e-01  9.7440461524139349e-02  5.4774015961495573e-02  2.6403377957707457e-02  1.1012184274969274e-02  4.0189901525637638e-03  1.3034257600894857e-03  3.8471931935540838e-04  1.0758866761958008e-04  3.0398958401540048e-05  9.3637521748027284e-06  3.2729082354948197e-06  1.2651307403509555e-06  5.1243254198691022e-07  2.0914727342097963e-07  8.4680498335154521e-08  3.4383939622820457e-08  1.5274313926745394e-08  9.8075197710754825e-09  2.0205145347883821e-01  1.9053945142383316e-01  1.5088351342090181e-01  1.0001913923005161e-01  5.5335370093474376e-02  2.5389045192029613e-02  9.4867705811397026e-03  2.7258065806773802e-03  4.6754112686630492e-04  -6.8761227548016766e-05  -1.1002896968585456e-04  -6.5404826147459524e-05  -3.0415321772575493e-05  -1.2634576638920547e-05  -4.9524850294451398e-06  -1.8848714095414123e-06  -7.0722106391990409e-07  -2.6374253617468672e-07  -9.8816312862087101e-08  -3.9636649615160222e-08  -2.4023336398983174e-08  </DataArray> 
</PointData> 
</Piece>
</UnstructuredGrid>
</VTKFile>