<?xml version="1.0"?>
<VTKFile type="UnstructuredGrid"  version="0.1"  >
<UnstructuredGrid>
<Piece  NumberOfPoints="441" NumberOfCells="800">
<Points>
<DataArray  type="Float64"  NumberOfComponents="3"  format="ascii">-2 -2 0  -1.8 -2 0  -1.6 -2 0  -1.4 -2 0  -1.2 -2 0  -1 -2 0  -0.8 -2 0  -0.6000000000000001 -2 0  -0.3999999999999999 -2 0  -0.2 -2 0  0 -2 0  0.2000000000000002 -2 0  0.3999999999999999 -2 0  0.6000000000000001 -2 0  0.7999999999999998 -2 0  1 -2 0  1.2 -2 0  1.4 -2 0  1.6 -2 0  1.8 -2 0  2 -2 0  -2 -1.8 0  -1.8 -1.8 0  -1.6 -1.8 0  -1.4 -1.8 0  -1.2 -1.8 0  -1 -1.8 0  -0.8 -1.8 0  -0.6000000000000001 -1.8 0  -0.3999999999999999 -1.8 0  -0.2 -1.8 0  0 -1.8 0  0.2000000000000002 -1.8 0  0.3999999999999999 -1.8 0  0.6000000000000001 -1.8 0  0.7999999999999998 -1.8 0  1 -1.8 0  1.2 -1.8 0  1.4 -1.8 0  1.6 -1.8 0  1.8 -1.8 0  2 -1.8 0  -2 -1.6 0  -1.8 -1.6 0  -1.6 -1.6 0  -1.4 -1.6 0  -1.2 -1.6 0  -1 -1.6 0  -0.8 -1.6 0  -0.6000000000000001 -1.6 0  -0.3999999999999999 -1.6 0  -0.2 -1.6 0  0 -1.6 0  0.2000000000000002 -1.6 0  0.3999999999999999 -1.6 0  0.6000000000000001 -1.6 0  0.7999999999999998 -1.6 0  1 -1.6 0  1.2 -1.6 0  1.4 -1.6 0  1.6 -1.6 0  1.8 -1.6 0  2 -1.6 0  -2 -1.4 0  -1.8 -1.4 0  -1.6 -1.4 0  -1.4 -1.4 0  -1.2 -1.4 0  -1 -1.4 0  -0.8 -1.4 0  -0.6000000000000001 -1.4 0  -0.3999999999999999 -1.4 0  -0.2 -1.4 0  0 -1.4 0  0.2000000000000002 -1.4 0  0.3999999999999999 -1.4 0  0.6000000000000001 -1.4 0  0.7999999999999998 -1.4 0  1 -1.4 0  1.2 -1.4 0  1.4 -1.4 0  1.6 -1.4 0  1.8 -1.4 0  2 -1.4 0  -2 -1.2 0  -1.8 -1.2 0  -1.6 -1.2 0  -1.4 -1.2 0  -1.2 -1.2 0  -1 -1.2 0  -0.8 -1.2 0  -0.6000000000000001 -1.2 0  -0.3999999999999999 -1.2 0  -0.2 -1.2 0  0 -1.2 0  0.2000000000000002 -1.2 0  0.3999999999999999 -1.2 0  0.6000000000000001 -1.2 0  0.7999999999999998 -1.2 0  1 -1.2 0  1.2 -1.2 0  1.4 -1.2 0  1.6 -1.2 0  1.8 -1.2 0  2 -1.2 0  -2 -1 0  -1.8 -1 0  -1.6 -1 0  -1.4 -1 0  -1.2 -1 0  -1 -1 0  -0.8 -1 0  -0.6000000000000001 -1 0  -0.3999999999999999 -1 0  -0.2 -1 0  0 -1 0  0.2000000000000002 -1 0  0.3999999999999999 -1 0  0.6000000000000001 -1 0  0.7999999999999998 -1 0  1 -1 0  1.2 -1 0  1.4 -1 0  1.6 -1 0  1.8 -1 0  2 -1 0  -2 -0.8 0  -1.8 -0.8 0  -1.6 -0.8 0  -1.4 -0.8 0  -1.2 -0.8 0  -1 -0.8 0  -0.8 -0.8 0  -0.6000000000000001 -0.8 0  -0.3999999999999999 -0.8 0  -0.2 -0.8 0  0 -0.8 0  0.2000000000000002 -0.8 0  0.3999999999999999 -0.8 0  0.6000000000000001 -0.8 0  0.7999999999999998 -0.8 0  1 -0.8 0  1.2 -0.8 0  1.4 -0.8 0  1.6 -0.8 0  1.8 -0.8 0  2 -0.8 0  -2 -0.6000000000000001 0  -1.8 -0.6000000000000001 0  -1.6 -0.6000000000000001 0  -1.4 -0.6000000000000001 0  -1.2 -0.6000000000000001 0  -1 -0.6000000000000001 0  -0.8 -0.6000000000000001 0  -0.6000000000000001 -0.6000000000000001 0  -0.3999999999999999 -0.6000000000000001 0  -0.2 -0.6000000000000001 0  0 -0.6000000000000001 0  0.2000000000000002 -0.6000000000000001 0  0.3999999999999999 -0.6000000000000001 0  0.6000000000000001 -0.6000000000000001 0  0.7999999999999998 -0.6000000000000001 0  1 -0.6000000000000001 0  1.2 -0.6000000000000001 0  1.4 -0.6000000000000001 0  1.6 -0.6000000000000001 0  1.8 -0.6000000000000001 0  2 -0.6000000000000001 0  -2 -0.3999999999999999 0  -1.8 -0.3999999999999999 0  -1.6 -0.3999999999999999 0  -1.4 -0.3999999999999999 0  -1.2 -0.3999999999999999 0  -1 -0.3999999999999999 0  -0.8 -0.3999999999999999 0  -0.6000000000000001 -0.3999999999999999 0  -0.3999999999999999 -0.3999999999999999 0  -0.2 -0.3999999999999999 0  0 -0.3999999999999999 0  0.2000000000000002 -0.3999999999999999 0  0.3999999999999999 -0.3999999999999999 0  0.6000000000000001 -0.3999999999999999 0  0.7999999999999998 -0.3999999999999999 0  1 -0.3999999999999999 0  1.2 -0.3999999999999999 0  1.4 -0.3999999999999999 0  1.6 -0.3999999999999999 0  1.8 -0.3999999999999999 0  2 -0.3999999999999999 0  -2 -0.2 0  -1.8 -0.2 0  -1.6 -0.2 0  -1.4 -0.2 0  -1.2 -0.2 0  -1 -0.2 0  -0.8 -0.2 0  -0.6000000000000001 -0.2 0  -0.3999999999999999 -0.2 0  -0.2 -0.2 0  0 -0.2 0  0.2000000000000002 -0.2 0  0.3999999999999999 -0.2 0  0.6000000000000001 -0.2 0  0.7999999999999998 -0.2 0  1 -0.2 0  1.2 -0.2 0  1.4 -0.2 0  1.6 -0.2 0  1.8 -0.2 0  2 -0.2 0  -2 0 0  -1.8 0 0  -1.6 0 0  -1.4 0 0  -1.2 0 0  -1 0 0  -0.8 0 0  -0.6000000000000001 0 0  -0.3999999999999999 0 0  -0.2 0 0  0 0 0  0.2000000000000002 0 0  0.3999999999999999 0 0  0.6000000000000001 0 0  0.7999999999999998 0 0  1 0 0  1.2 0 0  1.4 0 0  1.6 0 0  1.8 0 0  2 0 0  -2 0.2000000000000002 0  -1.8 0.2000000000000002 0  -1.6 0.2000000000000002 0  -1.4 0.2000000000000002 0  -1.2 0.2000000000000002 0  -1 0.2000000000000002 0  -0.8 0.2000000000000002 0  -0.6000000000000001 0.2000000000000002 0  -0.3999999999999999 0.2000000000000002 0  -0.2 0.2000000000000002 0  0 0.2000000000000002 0  0.2000000000000002 0.2000000000000002 0  0.3999999999999999 0.2000000000000002 0  0.6000000000000001 0.2000000000000002 0  0.7999999999999998 0.2000000000000002 0  1 0.2000000000000002 0  1.2 0.2000000000000002 0  1.4 0.2000000000000002 0  1.6 0.2000000000000002 0  1.8 0.2000000000000002 0  2 0.2000000000000002 0  -2 0.3999999999999999 0  -1.8 0.3999999999999999 0  -1.6 0.3999999999999999 0  -1.4 0.3999999999999999 0  -1.2 0.3999999999999999 0  -1 0.3999999999999999 0  -0.8 0.3999999999999999 0  -0.6000000000000001 0.3999999999999999 0  -0.3999999999999999 0.3999999999999999 0  -0.2 0.3999999999999999 0  0 0.3999999999999999 0  0.2000000000000002 0.3999999999999999 0  0.3999999999999999 0.3999999999999999 0  0.6000000000000001 0.3999999999999999 0  0.7999999999999998 0.3999999999999999 0  1 0.3999999999999999 0  1.2 0.3999999999999999 0  1.4 0.3999999999999999 0  1.6 0.3999999999999999 0  1.8 0.3999999999999999 0  2 0.3999999999999999 0  -2 0.6000000000000001 0  -1.8 0.6000000000000001 0  -1.6 0.6000000000000001 0  -1.4 0.6000000000000001 0  -1.2 0.6000000000000001 0  -1 0.6000000000000001 0  -0.8 0.6000000000000001 0  -0.6000000000000001 0.6000000000000001 0  -0.3999999999999999 0.6000000000000001 0  -0.2 0.6000000000000001 0  0 0.6000000000000001 0  0.2000000000000002 0.6000000000000001 0  0.3999999999999999 0.6000000000000001 0  0.6000000000000001 0.6000000000000001 0  0.7999999999999998 0.6000000000000001 0  1 0.6000000000000001 0  1.2 0.6000000000000001 0  1.4 0.6000000000000001 0  1.6 0.6000000000000001 0  1.8 0.6000000000000001 0  2 0.6000000000000001 0  -2 0.7999999999999998 0  -1.8 0.7999999999999998 0  -1.6 0.7999999999999998 0  -1.4 0.7999999999999998 0  -1.2 0.7999999999999998 0  -1 0.7999999999999998 0  -0.8 0.7999999999999998 0  -0.6000000000000001 0.7999999999999998 0  -0.3999999999999999 0.7999999999999998 0  -0.2 0.7999999999999998 0  0 0.7999999999999998 0  0.2000000000000002 0.7999999999999998 0  0.3999999999999999 0.7999999999999998 0  0.6000000000000001 0.7999999999999998 0  0.7999999999999998 0.7999999999999998 0  1 0.7999999999999998 0  1.2 0.7999999999999998 0  1.4 0.7999999999999998 0  1.6 0.7999999999999998 0  1.8 0.7999999999999998 0  2 0.7999999999999998 0  -2 1 0  -1.8 1 0  -1.6 1 0  -1.4 1 0  -1.2 1 0  -1 1 0  -0.8 1 0  -0.6000000000000001 1 0  -0.3999999999999999 1 0  -0.2 1 0  0 1 0  0.2000000000000002 1 0  0.3999999999999999 1 0  0.6000000000000001 1 0  0.7999999999999998 1 0  1 1 0  1.2 1 0  1.4 1 0  1.6 1 0  1.8 1 0  2 1 0  -2 1.2 0  -1.8 1.2 0  -1.6 1.2 0  -1.4 1.2 0  -1.2 1.2 0  -1 1.2 0  -0.8 1.2 0  -0.6000000000000001 1.2 0  -0.3999999999999999 1.2 0  -0.2 1.2 0  0 1.2 0  0.2000000000000002 1.2 0  0.3999999999999999 1.2 0  0.6000000000000001 1.2 0  0.7999999999999998 1.2 0  1 1.2 0  1.2 1.2 0  1.4 1.2 0  1.6 1.2 0  1.8 1.2 0  2 1.2 0  -2 1.4 0  -1.8 1.4 0  -1.6 1.4 0  -1.4 1.4 0  -1.2 1.4 0  -1 1.4 0  -0.8 1.4 0  -0.6000000000000001 1.4 0  -0.3999999999999999 1.4 0  -0.2 1.4 0  0 1.4 0  0.2000000000000002 1.4 0  0.3999999999999999 1.4 0  0.6000000000000001 1.4 0  0.7999999999999998 1.4 0  1 1.4 0  1.2 1.4 0  1.4 1.4 0  1.6 1.4 0  1.8 1.4 0  2 1.4 0  -2 1.6 0  -1.8 1.6 0  -1.6 1.6 0  -1.4 1.6 0  -1.2 1.6 0  -1 1.6 0  -0.8 1.6 0  -0.6000000000000001 1.6 0  -0.3999999999999999 1.6 0  -0.2 1.6 0  0 1.6 0  0.2000000000000002 1.6 0  0.3999999999999999 1.6 0  0.6000000000000001 1.6 0  0.7999999999999998 1.6 0  1 1.6 0  1.2 1.6 0  1.4 1.6 0  1.6 1.6 0  1.8 1.6 0  2 1.6 0  -2 1.8 0  -1.8 1.8 0  -1.6 1.8 0  -1.4 1.8 0  -1.2 1.8 0  -1 1.8 0  -0.8 1.8 0  -0.6000000000000001 1.8 0  -0.3999999999999999 1.8 0  -0.2 1.8 0  0 1.8 0  0.2000000000000002 1.8 0  0.3999999999999999 1.8 0  0.6000000000000001 1.8 0  0.7999999999999998 1.8 0  1 1.8 0  1.2 1.8 0  1.4 1.8 0  1.6 1.8 0  1.8 1.8 0  2 1.8 0  -2 2 0  -1.8 2 0  -1.6 2 0  -1.4 2 0  -1.2 2 0  -1 2 0  -0.8 2 0  -0.6000000000000001 2 0  -0.3999999999999999 2 0  -0.2 2 0  0 2 0  0.2000000000000002 2 0  0.3999999999999999 2 0  0.6000000000000001 2 0  0.7999999999999998 2 0  1 2 0  1.2 2 0  1.4 2 0  1.6 2 0  1.8 2 0  2 2 0  </DataArray>
</Points>
<Cells>
[...]
<PointData  Scalars="f_8"> 
<DataArray  type="Float64"  Name="f_8"  format="ascii">3.7253338445540850e-03  3.7578454430517712e-03  3.7730801322030240e-03  3.7825010193095645e-03  3.7893651022967772e-03  3.7948049992150143e-03  3.7993206585063746e-03  3.8031941403448119e-03  3.8066228462019036e-03  3.8097686883552849e-03  3.8127784889518280e-03  3.8157935203376190e-03  3.8189551976324830e-03  3.8224107633096386e-03  3.8263228291137135e-03  3.8308898747291967e-03  3.8363958360491681e-03  3.8433447962198026e-03  3.8528816517004530e-03  3.8683134756539155e-03  3.9013639537975753e-03  3.9489869565162644e-03  3.9589477459982068e-03  3.9688187574318844e-03  3.9768102786891368e-03  3.9832438157087029e-03  3.9885416837482021e-03  3.9930107931387075e-03  3.9968732265192345e-03  4.0003051665112987e-03  4.0034601684059501e-03  4.0064814034227111e-03  4.0095081192291580e-03  4.0126797070959060e-03  4.0161397696860243e-03  4.0200426126922734e-03  4.0245656456073765e-03  4.0299331194137396e-03  4.0364560031521234e-03  4.0445628758442294e-03  4.0545703995589809e-03  4.0645460887316987e-03  4.5463597876046775e-03  4.5518100194535342e-03  4.5587071123248824e-03  4.5653002962316542e-03  4.5711298756956941e-03  4.5761798223290647e-03  4.5805580683373750e-03  4.5843996254081587e-03  4.5878421205834503e-03  4.5910215542364595e-03  4.5940726044134987e-03  4.5971294093356662e-03  4.6003261376781034e-03  4.6037975240521096e-03  4.6076795480466826e-03  4.6121095406513645e-03  4.6172214653886351e-03  4.6231199149769954e-03  4.6297779625723550e-03  4.6367016574533227e-03  4.6420550587768124e-03  5.5534261860591457e-03  5.5583582652741327e-03  5.5641726740255151e-03  5.5699856960878050e-03  5.5753736367593005e-03  5.5802048961287355e-03  5.5844910683929567e-03  5.5883081289977762e-03  5.5917608415057560e-03  5.5949674086242162e-03  5.5980525013987897e-03  5.6011434486597182e-03  5.6043674099699164e-03  5.6078484633643889e-03  5.6117035230778874e-03  5.6160348343051751e-03  5.6209135986844449e-03  5.6263423366530486e-03  5.6321722398846343e-03  5.6379494151391069e-03  5.6427522557072453e-03  7.0147456780148502e-03  7.0199112289315892e-03  7.0254050969012043e-03  7.0308295262772307e-03  7.0359223044823066e-03  7.0405677642332186e-03  7.0447520479171204e-03  7.0485227133496500e-03  7.0519627435556070e-03  7.0551753119054410e-03  7.0582746135121879e-03  7.0613796172849779e-03  7.0646089039246521e-03  7.0680753883808466e-03  7.0718797175241422e-03  7.0761004759674877e-03  7.0807779865647673e-03  7.0858869785318255e-03  7.0912948477815894e-03  7.0967175306819426e-03  7.1017383315329216e-03  8.9859314527926653e-03  8.9911620254434638e-03  8.9964115614956739e-03  9.0015027501014738e-03  9.0062916247949827e-03  9.0107016658137785e-03  9.0147191550982077e-03  9.0183778700511866e-03  9.0217445584035334e-03  9.0249076504426949e-03  9.0279686152273456e-03  9.0310348521484857e-03  9.0342131947768155e-03  9.0376032992876068e-03  9.0412902011701504e-03  9.0453351525336990e-03  9.0497637086400812e-03  9.0545506713920719e-03  9.0596048829501025e-03  9.0647664597383534e-03  9.0698458523934267e-03  1.1529541603453817e-02  1.1534282232837098e-02  1.1538960508949946e-02  1.1543489718667345e-02  1.1547786088877490e-02  1.1551795773783393e-02  1.1555502457825273e-02  1.1558924850569214e-02  1.1562110384510172e-02  1.1565127928420528e-02  1.1568060400552447e-02  1.1570997419643365e-02  1.1574027935766661e-02  1.1577232770350087e-02  1.1580677022809273e-02  1.1584402369197642e-02  1.1588419533136652e-02  1.1592702037642852e-02  1.1597184391391260e-02  1.1601771406837848e-02  1.1606367836955294e-02  1.4707750541356746e-02  1.4711205326943626e-02  1.4714724234265199e-02  1.4718247147036127e-02  1.4721704227422219e-02  1.4725036607221097e-02  1.4728208232550676e-02  1.4731210161494861e-02  1.4734059642026042e-02  1.4736795809122023e-02  1.4739473237340962e-02  1.4742154197772842e-02  1.4744900273149160e-02  1.4747763922697183e-02  1.4750780627779552e-02  1.4753962380806406e-02  1.4757293518293092e-02  1.4760730292522766e-02  1.4764206130924376e-02  1.4767644860519138e-02  1.4770982759649880e-02  1.8572457090366534e-02  1.8573665874713392e-02  1.8575269367711145e-02  1.8577196732282850e-02  1.8579355120897548e-02  1.8581650086991378e-02  1.8584001572366088e-02  1.8586353369319922e-02  1.8588676130828360e-02  1.8590965022292287e-02  1.8593233435628069e-02  1.8595504175076525e-02  1.8597799411125656e-02  1.8600130633808477e-02  1.8602489885973537e-02  1.8604843700504328e-02  1.8607131298244175e-02  1.8609268547860797e-02  1.8611158698362117e-02  1.8612709634995762e-02  1.8613854991297332e-02  2.3153183337443563e-02  2.3151115508308659e-02  2.3149978255228080e-02  2.3149661970410011e-02  2.3150017662479358e-02  2.3150883464826646e-02  2.3152107563695141e-02  2.3153563373142502e-02  2.3155155942712682e-02  2.3156820614818385e-02  2.3158515849680462e-02  2.3160212301794426e-02  2.3161880100755872e-02  2.3163476180791533e-02  2.3164933567327163e-02  2.3166154733852074e-02  2.3167011278164076e-02  2.3167351868186036e-02  2.3167019232251652e-02  2.3165874599552189e-02  2.3163824628455756e-02  2.8443481916655692e-02  2.8437174888387786e-02  2.8432532109082718e-02  2.8429378726237544e-02  2.8427476457308108e-02  2.8426563186921668e-02  2.8426386841351025e-02  2.8426727527258375e-02  2.8427406874237705e-02  2.8428286486368484e-02  2.8429258508154732e-02  2.8430231299489513e-02  2.8431112832970964e-02  2.8431794170770412e-02  2.8432135467372513e-02  2.8431957337836315e-02  2.8431040826024524e-02  2.8429139033860833e-02  2.8426001964934632e-02  2.8421412637463322e-02  2.8415227213688624e-02  3.4387197821469810e-02  3.4375943829204197e-02  3.4367258791907773e-02  3.4360873221219682e-02  3.4356423825451406e-02  3.4353515202390453e-02  3.4351769167375069e-02  3.4350854483058531e-02  3.4350497684264639e-02  3.4350479299300296e-02  3.4350620352606477e-02  3.4350763247834148e-02  3.4350750146480376e-02  3.4350401407536937e-02  3.4349496780895494e-02  3.4347762807162112e-02  3.4344870927979602e-02  3.4340451406557213e-02  3.4334127030087633e-02  3.4325566094714752e-02  3.4314545439155499e-02  4.0866641215155278e-02  4.0850206541444556e-02  4.0837365355858565e-02  4.0827715483350346e-02  4.0820727343639458e-02  4.0815840599668043e-02  4.0812532739118342e-02  4.0810354379336243e-02  4.0808937643027905e-02  4.0807986654635413e-02  4.0807257721485378e-02  4.0806534275307026e-02  4.0805599655992036e-02  4.0804209848110194e-02  4.0802068454460841e-02  4.0798807475989921e-02  4.0793979650885090e-02  4.0787070507516190e-02  4.0777539182936084e-02  4.0764893065433787e-02  4.0748787983501074e-02  4.7695318893600895e-02  4.7674160446012956e-02  4.7657668717110378e-02  4.7645249298171356e-02  4.7636153647522397e-02  4.7629628951569546e-02  4.7625005278017198e-02  4.7621727926541894e-02  4.7619354836928765e-02  4.7617535852842251e-02  4.7615984195505931e-02  4.7614445230461412e-02  4.7612664416185571e-02  4.7610354972417085e-02  4.7607166018288738e-02  4.7602653702389773e-02  4.7596261424243683e-02  4.7587320726442173e-02  4.7575090557938141e-02  4.7558854132166033e-02  4.7538077224642809e-02  5.4618086487128938e-02  5.4593517671355667e-02  5.4574665648348217e-02  5.4560631216810075e-02  5.4550371772625388e-02  5.4542924617133032e-02  5.4537496452478060e-02  5.4533470546952817e-02  5.4530377712091564e-02  5.4527857086906745e-02  5.4525617501193703e-02  5.4523401899349740e-02  5.4520953594787723e-02  5.4517981882856781e-02  5.4514124756675886e-02  5.4508908184976043e-02  5.4501705707231077e-02  5.4491711103426613e-02  5.4477952684935570e-02  5.4459397118418122e-02  5.4435190947212476e-02  6.1321144168629105e-02  6.1295410777545196e-02  6.1276384666696090e-02  6.1262621199032030e-02  6.1252672454890113e-02  6.1245376620987536e-02  6.1239889355655788e-02  6.1235619041735634e-02  6.1232148677447584e-02  6.1229171991483075e-02  6.1226446808688502e-02  6.1223760628235827e-02  6.1220901732009836e-02  6.1217629217980088e-02  6.1213635521322474e-02  6.1208495305320409e-02  6.1201596874495882e-02  6.1192061502394160e-02  6.1178682764789639e-02  6.1159975661264729e-02  6.1134501504791862e-02  6.7452994418670392e-02  6.7429289693907171e-02  6.7413256026056537e-02  6.7402370141079526e-02  6.7394643426900269e-02  6.7388809158380913e-02  6.7384130256671726e-02  6.7380185169621742e-02  6.7376720096220533e-02  6.7373563600570827e-02  6.7370581958882333e-02  6.7367656574793600e-02  6.7364670148211833e-02  6.7361491378720675e-02  6.7357948077398297e-02  6.7353775659770826e-02  6.7348522942317260e-02  6.7341395070429313e-02  6.7331034289543235e-02  6.7315340494023324e-02  6.7291716866825099e-02  7.2655253949652401e-02  7.2637957425940286e-02  7.2629257204541539e-02  7.2624457266336470e-02  7.2621036083875587e-02  7.2617946895751226e-02  7.2614861034761918e-02  7.2611733572159914e-02  7.2608601594292874e-02  7.2605505860766459e-02  7.2602470671247379e-02  7.2599508777270005e-02  7.2596634650973157e-02  7.2593876053830358e-02  7.2591273933628853e-02  7.2588854114941981e-02  7.2586537482679805e-02  7.2583922530987971e-02  7.2579830198504586e-02  7.2571531575795198e-02  7.2554105370415053e-02  7.6599088860310902e-02  7.6595506863375865e-02  7.6600227593729225e-02  7.6604952826321002e-02  7.6607540049672088e-02  7.6608016207520835e-02  7.6606940736827681e-02  7.6604874079425872e-02  7.6602245244722283e-02  7.6599350059712745e-02  7.6596389042303356e-02  7.6593515410657537e-02  7.6590884134699791e-02  7.6588699202315300e-02  7.6587256507312240e-02  7.6586973852579690e-02  7.6588378896247963e-02  7.6591961789359148e-02  7.6597613244480417e-02  7.6602913817208643e-02  7.6599053601006467e-02  7.9018293455181368e-02  7.9047548056349143e-02  7.9074270382588088e-02  7.9090886918149639e-02  7.9099740286378104e-02  7.9103544863664915e-02  7.9104236207884815e-02  7.9103083984860448e-02  7.9100901928410364e-02  7.9098209371240957e-02  7.9095350356537530e-02  7.9092587865629699e-02  7.9090186082876129e-02  7.9088490775229670e-02  7.9088018299815724e-02  7.9089567537111508e-02  7.9094374707509948e-02  7.9104319904623091e-02  7.9122036156694220e-02  7.9149692846276418e-02  7.9178856203460643e-02  7.9717874855482485e-02  7.9853485456834128e-02  7.9908202488807173e-02  7.9933660935775225e-02  7.9945911346188780e-02  7.9951237768391997e-02  7.9952670815823038e-02  7.9951887579794656e-02  7.9949884007829430e-02  7.9947274376798105e-02  7.9944459918660352e-02  7.9941745626138441e-02  7.9939436824905549e-02  7.9937933659289945e-02  7.9937842072133766e-02  7.9940134227074591e-02  7.9946439916731643e-02  7.9959715692822661e-02  7.9986159845826729e-02  8.0041826512637582e-02  8.0179051178056335e-02  </DataArray> 
</PointData> 
</Piece>
</UnstructuredGrid>
</VTKFile>