<?xml version="1.0"?>
<VTKFile type="UnstructuredGrid"  version="0.1"  >
<UnstructuredGrid>
<Piece  NumberOfPoints="441" NumberOfCells="800">
<Points>
<DataArray  type="Float64"  NumberOfComponents="3"  format="ascii">-2 -2 0  -1.8 -2 0  -1.6 -2 0  -1.4 -2 0  -1.2 -2 0  -1 -2 0  -0.8 -2 0  -0.6000000000000001 -2 0  -0.3999999999999999 -2 0  -0.2 -2 0  0 -2 0  0.2000000000000002 -2 0  0.3999999999999999 -2 0  0.6000000000000001 -2 0  0.7999999999999998 -2 0  1 -2 0  1.2 -2 0  1.4 -2 0  1.6 -2 0  1.8 -2 0  2 -2 0  -2 -1.8 0  -1.8 -1.8 0  -1.6 -1.8 0  -1.4 -1.8 0  -1.2 -1.8 0  -1 -1.8 0  -0.8 -1.8 0  -0.6000000000000001 -1.8 0  -0.3999999999999999 -1.8 0  -0.2 -1.8 0  0 -1.8 0  0.2000000000000002 -1.8 0  0.3999999999999999 -1.8 0  0.6000000000000001 -1.8 0  0.7999999999999998 -1.8 0  1 -1.8 0  1.2 -1.8 0  1.4 -1.8 0  1.6 -1.8 0  1.8 -1.8 0  2 -1.8 0  -2 -1.6 0  -1.8 -1.6 0  -1.6 -1.6 0  -1.4 -1.6 0  -1.2 -1.6 0  -1 -1.6 0  -0.8 -1.6 0  -0.6000000000000001 -1.6 0  -0.3999999999999999 -1.6 0  -0.2 -1.6 0  0 -1.6 0  0.2000000000000002 -1.6 0  0.3999999999999999 -1.6 0  0.6000000000000001 -1.6 0  0.7999999999999998 -1.6 0  1 -1.6 0  1.2 -1.6 0  1.4 -1.6 0  1.6 -1.6 0  1.8 -1.6 0  2 -1.6 0  -2 -1.4 0  -1.8 -1.4 0  -1.6 -1.4 0  -1.4 -1.4 0  -1.2 -1.4 0  -1 -1.4 0  -0.8 -1.4 0  -0.6000000000000001 -1.4 0  -0.3999999999999999 -1.4 0  -0.2 -1.4 0  0 -1.4 0  0.2000000000000002 -1.4 0  0.3999999999999999 -1.4 0  0.6000000000000001 -1.4 0  0.7999999999999998 -1.4 0  1 -1.4 0  1.2 -1.4 0  1.4 -1.4 0  1.6 -1.4 0  1.8 -1.4 0  2 -1.4 0  -2 -1.2 0  -1.8 -1.2 0  -1.6 -1.2 0  -1.4 -1.2 0  -1.2 -1.2 0  -1 -1.2 0  -0.8 -1.2 0  -0.6000000000000001 -1.2 0  -0.3999999999999999 -1.2 0  -0.2 -1.2 0  0 -1.2 0  0.2000000000000002 -1.2 0  0.3999999999999999 -1.2 0  0.6000000000000001 -1.2 0  0.7999999999999998 -1.2 0  1 -1.2 0  1.2 -1.2 0  1.4 -1.2 0  1.6 -1.2 0  1.8 -1.2 0  2 -1.2 0  -2 -1 0  -1.8 -1 0  -1.6 -1 0  -1.4 -1 0  -1.2 -1 0  -1 -1 0  -0.8 -1 0  -0.6000000000000001 -1 0  -0.3999999999999999 -1 0  -0.2 -1 0  0 -1 0  0.2000000000000002 -1 0  0.3999999999999999 -1 0  0.6000000000000001 -1 0  0.7999999999999998 -1 0  1 -1 0  1.2 -1 0  1.4 -1 0  1.6 -1 0  1.8 -1 0  2 -1 0  -2 -0.8 0  -1.8 -0.8 0  -1.6 -0.8 0  -1.4 -0.8 0  -1.2 -0.8 0  -1 -0.8 0  -0.8 -0.8 0  -0.6000000000000001 -0.8 0  -0.3999999999999999 -0.8 0  -0.2 -0.8 0  0 -0.8 0  0.2000000000000002 -0.8 0  0.3999999999999999 -0.8 0  0.6000000000000001 -0.8 0  0.7999999999999998 -0.8 0  1 -0.8 0  1.2 -0.8 0  1.4 -0.8 0  1.6 -0.8 0  1.8 -0.8 0  2 -0.8 0  -2 -0.6000000000000001 0  -1.8 -0.6000000000000001 0  -1.6 -0.6000000000000001 0  -1.4 -0.6000000000000001 0  -1.2 -0.6000000000000001 0  -1 -0.6000000000000001 0  -0.8 -0.6000000000000001 0  -0.6000000000000001 -0.6000000000000001 0  -0.3999999999999999 -0.6000000000000001 0  -0.2 -0.6000000000000001 0  0 -0.6000000000000001 0  0.2000000000000002 -0.6000000000000001 0  0.3999999999999999 -0.6000000000000001 0  0.6000000000000001 -0.6000000000000001 0  0.7999999999999998 -0.6000000000000001 0  1 -0.6000000000000001 0  1.2 -0.6000000000000001 0  1.4 -0.6000000000000001 0  1.6 -0.6000000000000001 0  1.8 -0.6000000000000001 0  2 -0.6000000000000001 0  -2 -0.3999999999999999 0  -1.8 -0.3999999999999999 0  -1.6 -0.3999999999999999 0  -1.4 -0.3999999999999999 0  -1.2 -0.3999999999999999 0  -1 -0.3999999999999999 0  -0.8 -0.3999999999999999 0  -0.6000000000000001 -0.3999999999999999 0  -0.3999999999999999 -0.3999999999999999 0  -0.2 -0.3999999999999999 0  0 -0.3999999999999999 0  0.2000000000000002 -0.3999999999999999 0  0.3999999999999999 -0.3999999999999999 0  0.6000000000000001 -0.3999999999999999 0  0.7999999999999998 -0.3999999999999999 0  1 -0.3999999999999999 0  1.2 -0.3999999999999999 0  1.4 -0.3999999999999999 0  1.6 -0.3999999999999999 0  1.8 -0.3999999999999999 0  2 -0.3999999999999999 0  -2 -0.2 0  -1.8 -0.2 0  -1.6 -0.2 0  -1.4 -0.2 0  -1.2 -0.2 0  -1 -0.2 0  -0.8 -0.2 0  -0.6000000000000001 -0.2 0  -0.3999999999999999 -0.2 0  -0.2 -0.2 0  0 -0.2 0  0.2000000000000002 -0.2 0  0.3999999999999999 -0.2 0  0.6000000000000001 -0.2 0  0.7999999999999998 -0.2 0  1 -0.2 0  1.2 -0.2 0  1.4 -0.2 0  1.6 -0.2 0  1.8 -0.2 0  2 -0.2 0  -2 0 0  -1.8 0 0  -1.6 0 0  -1.4 0 0  -1.2 0 0  -1 0 0  -0.8 0 0  -0.6000000000000001 0 0  -0.3999999999999999 0 0  -0.2 0 0  0 0 0  0.2000000000000002 0 0  0.3999999999999999 0 0  0.6000000000000001 0 0  0.7999999999999998 0 0  1 0 0  1.2 0 0  1.4 0 0  1.6 0 0  1.8 0 0  2 0 0  -2 0.2000000000000002 0  -1.8 0.2000000000000002 0  -1.6 0.2000000000000002 0  -1.4 0.2000000000000002 0  -1.2 0.2000000000000002 0  -1 0.2000000000000002 0  -0.8 0.2000000000000002 0  -0.6000000000000001 0.2000000000000002 0  -0.3999999999999999 0.2000000000000002 0  -0.2 0.2000000000000002 0  0 0.2000000000000002 0  0.2000000000000002 0.2000000000000002 0  0.3999999999999999 0.2000000000000002 0  0.6000000000000001 0.2000000000000002 0  0.7999999999999998 0.2000000000000002 0  1 0.2000000000000002 0  1.2 0.2000000000000002 0  1.4 0.2000000000000002 0  1.6 0.2000000000000002 0  1.8 0.2000000000000002 0  2 0.2000000000000002 0  -2 0.3999999999999999 0  -1.8 0.3999999999999999 0  -1.6 0.3999999999999999 0  -1.4 0.3999999999999999 0  -1.2 0.3999999999999999 0  -1 0.3999999999999999 0  -0.8 0.3999999999999999 0  -0.6000000000000001 0.3999999999999999 0  -0.3999999999999999 0.3999999999999999 0  -0.2 0.3999999999999999 0  0 0.3999999999999999 0  0.2000000000000002 0.3999999999999999 0  0.3999999999999999 0.3999999999999999 0  0.6000000000000001 0.3999999999999999 0  0.7999999999999998 0.3999999999999999 0  1 0.3999999999999999 0  1.2 0.3999999999999999 0  1.4 0.3999999999999999 0  1.6 0.3999999999999999 0  1.8 0.3999999999999999 0  2 0.3999999999999999 0  -2 0.6000000000000001 0  -1.8 0.6000000000000001 0  -1.6 0.6000000000000001 0  -1.4 0.6000000000000001 0  -1.2 0.6000000000000001 0  -1 0.6000000000000001 0  -0.8 0.6000000000000001 0  -0.6000000000000001 0.6000000000000001 0  -0.3999999999999999 0.6000000000000001 0  -0.2 0.6000000000000001 0  0 0.6000000000000001 0  0.2000000000000002 0.6000000000000001 0  0.3999999999999999 0.6000000000000001 0  0.6000000000000001 0.6000000000000001 0  0.7999999999999998 0.6000000000000001 0  1 0.6000000000000001 0  1.2 0.6000000000000001 0  1.4 0.6000000000000001 0  1.6 0.6000000000000001 0  1.8 0.6000000000000001 0  2 0.6000000000000001 0  -2 0.7999999999999998 0  -1.8 0.7999999999999998 0  -1.6 0.7999999999999998 0  -1.4 0.7999999999999998 0  -1.2 0.7999999999999998 0  -1 0.7999999999999998 0  -0.8 0.7999999999999998 0  -0.6000000000000001 0.7999999999999998 0  -0.3999999999999999 0.7999999999999998 0  -0.2 0.7999999999999998 0  0 0.7999999999999998 0  0.2000000000000002 0.7999999999999998 0  0.3999999999999999 0.7999999999999998 0  0.6000000000000001 0.7999999999999998 0  0.7999999999999998 0.7999999999999998 0  1 0.7999999999999998 0  1.2 0.7999999999999998 0  1.4 0.7999999999999998 0  1.6 0.7999999999999998 0  1.8 0.7999999999999998 0  2 0.7999999999999998 0  -2 1 0  -1.8 1 0  -1.6 1 0  -1.4 1 0  -1.2 1 0  -1 1 0  -0.8 1 0  -0.6000000000000001 1 0  -0.3999999999999999 1 0  -0.2 1 0  0 1 0  0.2000000000000002 1 0  0.3999999999999999 1 0  0.6000000000000001 1 0  0.7999999999999998 1 0  1 1 0  1.2 1 0  1.4 1 0  1.6 1 0  1.8 1 0  2 1 0  -2 1.2 0  -1.8 1.2 0  -1.6 1.2 0  -1.4 1.2 0  -1.2 1.2 0  -1 1.2 0  -0.8 1.2 0  -0.6000000000000001 1.2 0  -0.3999999999999999 1.2 0  -0.2 1.2 0  0 1.2 0  0.2000000000000002 1.2 0  0.3999999999999999 1.2 0  0.6000000000000001 1.2 0  0.7999999999999998 1.2 0  1 1.2 0  1.2 1.2 0  1.4 1.2 0  1.6 1.2 0  1.8 1.2 0  2 1.2 0  -2 1.4 0  -1.8 1.4 0  -1.6 1.4 0  -1.4 1.4 0  -1.2 1.4 0  -1 1.4 0  -0.8 1.4 0  -0.6000000000000001 1.4 0  -0.3999999999999999 1.4 0  -0.2 1.4 0  0 1.4 0  0.2000000000000002 1.4 0  0.3999999999999999 1.4 0  0.6000000000000001 1.4 0  0.7999999999999998 1.4 0  1 1.4 0  1.2 1.4 0  1.4 1.4 0  1.6 1.4 0  1.8 1.4 0  2 1.4 0  -2 1.6 0  -1.8 1.6 0  -1.6 1.6 0  -1.4 1.6 0  -1.2 1.6 0  -1 1.6 0  -0.8 1.6 0  -0.6000000000000001 1.6 0  -0.3999999999999999 1.6 0  -0.2 1.6 0  0 1.6 0  0.2000000000000002 1.6 0  0.3999999999999999 1.6 0  0.6000000000000001 1.6 0  0.7999999999999998 1.6 0  1 1.6 0  1.2 1.6 0  1.4 1.6 0  1.6 1.6 0  1.8 1.6 0  2 1.6 0  -2 1.8 0  -1.8 1.8 0  -1.6 1.8 0  -1.4 1.8 0  -1.2 1.8 0  -1 1.8 0  -0.8 1.8 0  -0.6000000000000001 1.8 0  -0.3999999999999999 1.8 0  -0.2 1.8 0  0 1.8 0  0.2000000000000002 1.8 0  0.3999999999999999 1.8 0  0.6000000000000001 1.8 0  0.7999999999999998 1.8 0  1 1.8 0  1.2 1.8 0  1.4 1.8 0  1.6 1.8 0  1.8 1.8 0  2 1.8 0  -2 2 0  -1.8 2 0  -1.6 2 0  -1.4 2 0  -1.2 2 0  -1 2 0  -0.8 2 0  -0.6000000000000001 2 0  -0.3999999999999999 2 0  -0.2 2 0  0 2 0  0.2000000000000002 2 0  0.3999999999999999 2 0  0.6000000000000001 2 0  0.7999999999999998 2 0  1 2 0  1.2 2 0  1.4 2 0  1.6 2 0  1.8 2 0  2 2 0  </DataArray>
</Points>
<Cells>
[...]
<PointData  Scalars="f_8"> 
<DataArray  type="Float64"  Name="f_8"  format="ascii">3.5308518122857308e-01  3.5246233051554982e-01  3.5091160363298146e-01  3.4845846164469496e-01  3.4515597075213927e-01  3.4108129340291982e-01  3.3633248470094379e-01  3.3102529361258803e-01  3.2528983378607818e-01  3.1926708584197000e-01  3.1310525056350058e-01  3.0695600681221902e-01  3.0097074863597156e-01  2.9529688867428072e-01  2.9007432358720575e-01  2.8543216532618643e-01  2.8148585369105761e-01  2.7833478666636963e-01  2.7606064509757416e-01  2.7472666381322630e-01  2.7437824120085441e-01  3.5279923764863802e-01  3.5230158748329010e-01  3.5083199336246207e-01  3.4843355598281545e-01  3.4516936913435642e-01  3.4112228373714726e-01  3.3639356660020631e-01  3.3110076508532083e-01  3.2537498611969429e-01  3.1935774441384246e-01  3.1319750706238697e-01  3.0704604701259475e-01  3.0105470893532382e-01  2.9537068364712643e-01  2.9013337875882195e-01  2.8547096152296519e-01  2.8149713243212565e-01  2.7830816114932411e-01  2.7598017316091322e-01  2.7456660409660366e-01  2.7409561709073871e-01  3.5272789115831821e-01  3.5223957551006524e-01  3.5078729596435188e-01  3.4840830060054595e-01  3.4516280768566432e-01  3.4113229474474971e-01  3.3641739619589178e-01  3.3113538266018649e-01  3.2541724991722354e-01  3.1940447665965382e-01  3.1324552805853456e-01  3.0709219203238036e-01  3.0109583980296883e-01  2.9540370334328975e-01  2.9015526064498998e-01  2.8547881618898402e-01  2.8148835962973112e-01  2.7828078214214236e-01  2.7593353003624987e-01  2.7450278449857468e-01  2.7402228479789492e-01  3.5270283307702988e-01  3.5221629122127912e-01  3.5076877747579571e-01  3.4839645785872148e-01  3.4515850031790657e-01  3.4113551102494427e-01  3.3642745471238206e-01  3.3115111262067526e-01  3.2543714039928906e-01  3.1942679824669573e-01  3.1326843425248524e-01  3.0711380830800156e-01  3.0111434775231039e-01  2.9541742713122149e-01  2.9016276325774804e-01  2.8547901345175436e-01  2.8148065971007269e-01  2.7826525486613152e-01  2.7591109858231239e-01  2.7447540079806187e-01  2.7399297637048103e-01  3.5269412391714461e-01  3.5220814894070679e-01  3.5076228371732682e-01  3.4839244482717097e-01  3.4515747023672211e-01  3.4113761656019781e-01  3.3643252056976697e-01  3.3115868168559981e-01  3.2544653293019460e-01  3.1943717708621727e-01  3.1327887218966716e-01  3.0712335572072685e-01  3.0112209974992737e-01  2.9542258981203084e-01  2.9016471847453779e-01  2.8547738057604943e-01  2.8147535110515409e-01  2.7825651885104158e-01  2.7589953943601359e-01  2.7446196025453512e-01  2.7397885731186861e-01  3.5269199693352299e-01  3.5220622784527850e-01  3.5076096966749104e-01  3.4839206054786154e-01  3.4515822193023260e-01  3.4113957321855681e-01  3.3643561006340478e-01  3.3116270108342949e-01  3.2545116986878997e-01  3.1944203906607122e-01  3.1328352102103524e-01  3.0712734472300757e-01  3.0112501159622190e-01  2.9542407304393242e-01  2.9016452067129628e-01  2.8547537595672573e-01  2.8147156001945484e-01  2.7825111628553273e-01  2.7589284954689597e-01  2.7445443441524853e-01  2.7397103479170076e-01  3.5269246344707428e-01  3.5220676512393112e-01  3.5076171393838468e-01  3.4839311918511728e-01  3.4515965783610858e-01  3.4114139485004186e-01  3.3643776785988477e-01  3.3116509021408913e-01  3.2545363861414228e-01  3.1944440176431887e-01  3.1328557429605813e-01  3.0712888561026830e-01  3.0112585614960796e-01  2.9542407401042525e-01  2.9016358284886962e-01  2.8547346790937794e-01  2.8146872093508651e-01  2.7824745696804926e-01  2.7588854688694647e-01  2.7444971923802319e-01  2.7396617376032056e-01  3.5269378723129119e-01  3.5220810678931108e-01  3.5076310516054354e-01  3.4839458062219525e-01  3.4516119303899051e-01  3.4114298626207412e-01  3.3643937535160617e-01  3.3116665229217790e-01  3.2545507616162700e-01  3.1944562393536841e-01  3.1328648601245490e-01  3.0712939598779015e-01  3.0112588711675670e-01  2.9542356836468525e-01  2.9016251102430263e-01  2.8547183280400817e-01  2.8146656026979433e-01  2.7824484282393652e-01  2.7588558229630677e-01  2.7444653197888708e-01  2.7396290780670662e-01  3.5269524341344444e-01  3.5220956096169898e-01  3.5076455015262853e-01  3.4839600524188680e-01  3.4516257991026550e-01  3.4114431049293242e-01  3.3644060423456473e-01  3.3116774612132410e-01  3.2545599012883419e-01  3.1944631095631881e-01  3.1328690023982325e-01  3.0712949670022277e-01  3.0112564263141811e-01  2.9542295960956555e-01  2.9016153442433906e-01  2.8547050218155551e-01  2.8146490753320336e-01  2.7824291731464235e-01  2.7588344877943949e-01  2.7444426738672689e-01  2.7396059696682801e-01  3.5269659664730363e-01  3.5221090535600696e-01  3.5076586597594933e-01  3.4839727150116967e-01  3.4516377374885254e-01  3.4114540693743561e-01  3.3644157637720173e-01  3.3116856577410481e-01  3.2545662893195421e-01  3.1944674187097932e-01  3.1328709931049781e-01  3.0712944493712468e-01  3.0112532784340845e-01  2.9542237801258986e-01  2.9016069186115340e-01  2.8546941481433202e-01  2.8146360190984310e-01  2.7824142975942484e-01  2.7588182411511436e-01  2.7444255705346599e-01  2.7395885665808473e-01  3.5269785403687465e-01  3.5221215166859099e-01  3.5076707818913727e-01  3.4839842629848533e-01  3.4516484745832438e-01  3.4114637565199252e-01  3.3644241629941718e-01  3.3116925380042467e-01  3.2545714346169580e-01  3.1944706379624638e-01  3.1328721311770069e-01  3.0712933983157820e-01  3.0112499879740423e-01  2.9542182663555616e-01  2.9015992699834020e-01  2.8546845279738670e-01  2.8146246640735817e-01  2.7824015120602230e-01  2.7588043873127027e-01  2.7444110550206102e-01  2.7395738241444256e-01  3.5269913220169330e-01  3.5221341791491773e-01  3.5076830891167349e-01  3.4839959761919825e-01  3.4516593518276745e-01  3.4114735541108349e-01  3.3644326391694734e-01  3.3116994589882542e-01  3.2545765828873552e-01  3.1944738222650076e-01  3.1328731975776142e-01  3.0712922413950261e-01  3.0112465611668759e-01  2.9542125904299271e-01  2.9015914387377600e-01  2.8546747104098219e-01  2.8146131025519705e-01  2.7823885162565243e-01  2.7587903241238027e-01  2.7443963349095302e-01  2.7395588847109520e-01  3.5270056671843580e-01  3.5221484109848950e-01  3.5076969901903304e-01  3.4840093167889735e-01  3.4516718845804090e-01  3.4114850122676776e-01  3.3644427392815451e-01  3.3117079082795298e-01  3.2545830910353069e-01  3.1944781168106628e-01  3.1328750417533358e-01  3.0712914528424379e-01  3.0112430298414239e-01  2.9542062939663477e-01  2.9015824536848556e-01  2.8546632180249815e-01  2.8145993882566900e-01  2.7823729623635274e-01  2.7587733960135052e-01  2.7443785614083993e-01  2.7395408339506111e-01  3.5270221863809209e-01  3.5221648712843467e-01  3.5077132779982906e-01  3.4840252775254643e-01  3.4516873025944683e-01  3.4114995994578717e-01  3.3644561342170581e-01  3.3117196864196063e-01  3.2545927854482637e-01  3.1944852477144403e-01  3.1328791523199540e-01  3.0712921480799554e-01  3.0112400150168517e-01  2.9541994089729190e-01  2.9015716999875846e-01  2.8546487753307348e-01  2.8145816188291689e-01  2.7823524019035178e-01  2.7587507311909187e-01  2.7443545953751741e-01  2.7395164423597512e-01  3.5270393192976046e-01  3.5221821409594323e-01  3.5077309263824985e-01  3.4840434313915603e-01  3.4517059160745922e-01  3.4115184183965203e-01  3.3644746862046399e-01  3.3117372973467285e-01  3.2546086207033481e-01  3.1944983739376115e-01  3.1328886139874212e-01  3.0712970521098443e-01  3.0112396160145721e-01  2.9541931876308936e-01  2.9015594275026985e-01  2.8546305575145603e-01  2.8145579148944383e-01  2.7823240147510520e-01  2.7587187683956105e-01  2.7443204028928597e-01  2.7394815160180980e-01  3.5270506824386827e-01  3.5221941961934772e-01  3.5077449147320650e-01  3.4840602890402878e-01  3.4517261263352472e-01  3.4115419217412940e-01  3.3645008543315785e-01  3.3117649693440748e-01  3.2546361938030488e-01  3.1945239378824991e-01  3.1329101161353706e-01  3.0713124795125440e-01  3.0112471804082441e-01  2.9541914992972845e-01  2.9015476442141919e-01  2.8546084953605749e-01  2.8145261089719920e-01  2.7822837199350792e-01  2.7586718942432265e-01  2.7442693826980386e-01  2.7394291182666469e-01  3.5270395743824468e-01  3.5221852287325789e-01  3.5077419117277120e-01  3.4840662481634760e-01  3.4517428608784068e-01  3.4115698763191177e-01  3.3645390845027351e-01  3.3118112585340403e-01  3.2546872759942563e-01  3.1945757957649806e-01  3.1329583279582496e-01  3.0713525915085288e-01  3.0112750842171093e-01  2.9542037947622607e-01  2.9015419671116971e-01  2.8545837871917712e-01  2.8144828024480423e-01  2.7822238104917674e-01  2.7585988672697209e-01  2.7441879722844936e-01  2.7393448920177299e-01  3.5269662266910806e-01  3.5221178889804089e-01  3.5076910741803080e-01  3.4840398281028601e-01  3.4517454633246580e-01  3.4116026484410089e-01  3.3645999559684425e-01  3.3118954110530352e-01  3.2547877343189990e-01  3.1946840750872091e-01  3.1330651024744066e-01  3.0714483674699222e-01  3.0113508706588460e-01  2.9542517682257508e-01  2.9015561236141124e-01  2.8545605645777328e-01  2.8144216369240410e-01  2.7821275598536366e-01  2.7584739888912951e-01  2.7440442922564179e-01  2.7391947693527341e-01  3.5267323341497309e-01  3.5219027000508268e-01  3.5075236576860985e-01  3.4839384462300221e-01  3.4517180723898727e-01  3.4116487029342801e-01  3.3647123824775949e-01  3.3120623583697995e-01  3.2549940202013006e-01  3.1949123688685466e-01  3.1332969175454034e-01  3.0716649412550423e-01  3.0115340059018003e-01  2.9543847080042623e-01  2.9016245360031212e-01  2.8545537181828157e-01  2.8143338447753835e-01  2.7819599305155995e-01  2.7582363932215798e-01  2.7437571117503590e-01  2.7388891897148271e-01  3.5260380841612587e-01  3.5213037994613594e-01  3.5070963049658427e-01  3.4837026754847278e-01  3.4516662478041149e-01  3.4117598984112391e-01  3.3649594773948516e-01  3.3124154457319727e-01  3.2554219962532005e-01  3.1953836570771910e-01  3.1337797996267019e-01  3.0721277232723637e-01  3.0119451341693626e-01  2.9547129182683640e-01  2.9018391561565421e-01  2.8546253654010734e-01  2.8142360144485679e-01  2.7816724756619354e-01  2.7577528483674252e-01  2.7430996161810162e-01  2.7381381386770892e-01  3.5232133937025290e-01  3.5197117410898526e-01  3.5063047424310384e-01  3.4834523841416104e-01  3.4517962838394617e-01  3.4121650404414455e-01  3.3655659238601626e-01  3.3131669409779085e-01  3.2562719231733195e-01  3.1962905240685935e-01  3.1347046042461796e-01  3.0730322481338845e-01  3.0127905127154125e-01  2.9554578918910035e-01  2.9024373568466799e-01  2.8550206703940051e-01  2.8143544355737193e-01  2.7814079714827844e-01  2.7569425205144699e-01  2.7414803195620358e-01  2.7352704256493693e-01  </DataArray> 
</PointData> 
</Piece>
</UnstructuredGrid>
</VTKFile>