<?xml version="1.0"?>
<VTKFile type="UnstructuredGrid"  version="0.1"  >
<UnstructuredGrid>
<Piece  NumberOfPoints="441" NumberOfCells="800">
<Points>
<DataArray  type="Float64"  NumberOfComponents="3"  format="ascii">-2 -2 0  -1.8 -2 0  -1.6 -2 0  -1.4 -2 0  -1.2 -2 0  -1 -2 0  -0.8 -2 0  -0.6000000000000001 -2 0  -0.3999999999999999 -2 0  -0.2 -2 0  0 -2 0  0.2000000000000002 -2 0  0.3999999999999999 -2 0  0.6000000000000001 -2 0  0.7999999999999998 -2 0  1 -2 0  1.2 -2 0  1.4 -2 0  1.6 -2 0  1.8 -2 0  2 -2 0  -2 -1.8 0  -1.8 -1.8 0  -1.6 -1.8 0  -1.4 -1.8 0  -1.2 -1.8 0  -1 -1.8 0  -0.8 -1.8 0  -0.6000000000000001 -1.8 0  -0.3999999999999999 -1.8 0  -0.2 -1.8 0  0 -1.8 0  0.2000000000000002 -1.8 0  0.3999999999999999 -1.8 0  0.6000000000000001 -1.8 0  0.7999999999999998 -1.8 0  1 -1.8 0  1.2 -1.8 0  1.4 -1.8 0  1.6 -1.8 0  1.8 -1.8 0  2 -1.8 0  -2 -1.6 0  -1.8 -1.6 0  -1.6 -1.6 0  -1.4 -1.6 0  -1.2 -1.6 0  -1 -1.6 0  -0.8 -1.6 0  -0.6000000000000001 -1.6 0  -0.3999999999999999 -1.6 0  -0.2 -1.6 0  0 -1.6 0  0.2000000000000002 -1.6 0  0.3999999999999999 -1.6 0  0.6000000000000001 -1.6 0  0.7999999999999998 -1.6 0  1 -1.6 0  1.2 -1.6 0  1.4 -1.6 0  1.6 -1.6 0  1.8 -1.6 0  2 -1.6 0  -2 -1.4 0  -1.8 -1.4 0  -1.6 -1.4 0  -1.4 -1.4 0  -1.2 -1.4 0  -1 -1.4 0  -0.8 -1.4 0  -0.6000000000000001 -1.4 0  -0.3999999999999999 -1.4 0  -0.2 -1.4 0  0 -1.4 0  0.2000000000000002 -1.4 0  0.3999999999999999 -1.4 0  0.6000000000000001 -1.4 0  0.7999999999999998 -1.4 0  1 -1.4 0  1.2 -1.4 0  1.4 -1.4 0  1.6 -1.4 0  1.8 -1.4 0  2 -1.4 0  -2 -1.2 0  -1.8 -1.2 0  -1.6 -1.2 0  -1.4 -1.2 0  -1.2 -1.2 0  -1 -1.2 0  -0.8 -1.2 0  -0.6000000000000001 -1.2 0  -0.3999999999999999 -1.2 0  -0.2 -1.2 0  0 -1.2 0  0.2000000000000002 -1.2 0  0.3999999999999999 -1.2 0  0.6000000000000001 -1.2 0  0.7999999999999998 -1.2 0  1 -1.2 0  1.2 -1.2 0  1.4 -1.2 0  1.6 -1.2 0  1.8 -1.2 0  2 -1.2 0  -2 -1 0  -1.8 -1 0  -1.6 -1 0  -1.4 -1 0  -1.2 -1 0  -1 -1 0  -0.8 -1 0  -0.6000000000000001 -1 0  -0.3999999999999999 -1 0  -0.2 -1 0  0 -1 0  0.2000000000000002 -1 0  0.3999999999999999 -1 0  0.6000000000000001 -1 0  0.7999999999999998 -1 0  1 -1 0  1.2 -1 0  1.4 -1 0  1.6 -1 0  1.8 -1 0  2 -1 0  -2 -0.8 0  -1.8 -0.8 0  -1.6 -0.8 0  -1.4 -0.8 0  -1.2 -0.8 0  -1 -0.8 0  -0.8 -0.8 0  -0.6000000000000001 -0.8 0  -0.3999999999999999 -0.8 0  -0.2 -0.8 0  0 -0.8 0  0.2000000000000002 -0.8 0  0.3999999999999999 -0.8 0  0.6000000000000001 -0.8 0  0.7999999999999998 -0.8 0  1 -0.8 0  1.2 -0.8 0  1.4 -0.8 0  1.6 -0.8 0  1.8 -0.8 0  2 -0.8 0  -2 -0.6000000000000001 0  -1.8 -0.6000000000000001 0  -1.6 -0.6000000000000001 0  -1.4 -0.6000000000000001 0  -1.2 -0.6000000000000001 0  -1 -0.6000000000000001 0  -0.8 -0.6000000000000001 0  -0.6000000000000001 -0.6000000000000001 0  -0.3999999999999999 -0.6000000000000001 0  -0.2 -0.6000000000000001 0  0 -0.6000000000000001 0  0.2000000000000002 -0.6000000000000001 0  0.3999999999999999 -0.6000000000000001 0  0.6000000000000001 -0.6000000000000001 0  0.7999999999999998 -0.6000000000000001 0  1 -0.6000000000000001 0  1.2 -0.6000000000000001 0  1.4 -0.6000000000000001 0  1.6 -0.6000000000000001 0  1.8 -0.6000000000000001 0  2 -0.6000000000000001 0  -2 -0.3999999999999999 0  -1.8 -0.3999999999999999 0  -1.6 -0.3999999999999999 0  -1.4 -0.3999999999999999 0  -1.2 -0.3999999999999999 0  -1 -0.3999999999999999 0  -0.8 -0.3999999999999999 0  -0.6000000000000001 -0.3999999999999999 0  -0.3999999999999999 -0.3999999999999999 0  -0.2 -0.3999999999999999 0  0 -0.3999999999999999 0  0.2000000000000002 -0.3999999999999999 0  0.3999999999999999 -0.3999999999999999 0  0.6000000000000001 -0.3999999999999999 0  0.7999999999999998 -0.3999999999999999 0  1 -0.3999999999999999 0  1.2 -0.3999999999999999 0  1.4 -0.3999999999999999 0  1.6 -0.3999999999999999 0  1.8 -0.3999999999999999 0  2 -0.3999999999999999 0  -2 -0.2 0  -1.8 -0.2 0  -1.6 -0.2 0  -1.4 -0.2 0  -1.2 -0.2 0  -1 -0.2 0  -0.8 -0.2 0  -0.6000000000000001 -0.2 0  -0.3999999999999999 -0.2 0  -0.2 -0.2 0  0 -0.2 0  0.2000000000000002 -0.2 0  0.3999999999999999 -0.2 0  0.6000000000000001 -0.2 0  0.7999999999999998 -0.2 0  1 -0.2 0  1.2 -0.2 0  1.4 -0.2 0  1.6 -0.2 0  1.8 -0.2 0  2 -0.2 0  -2 0 0  -1.8 0 0  -1.6 0 0  -1.4 0 0  -1.2 0 0  -1 0 0  -0.8 0 0  -0.6000000000000001 0 0  -0.3999999999999999 0 0  -0.2 0 0  0 0 0  0.2000000000000002 0 0  0.3999999999999999 0 0  0.6000000000000001 0 0  0.7999999999999998 0 0  1 0 0  1.2 0 0  1.4 0 0  1.6 0 0  1.8 0 0  2 0 0  -2 0.2000000000000002 0  -1.8 0.2000000000000002 0  -1.6 0.2000000000000002 0  -1.4 0.2000000000000002 0  -1.2 0.2000000000000002 0  -1 0.2000000000000002 0  -0.8 0.2000000000000002 0  -0.6000000000000001 0.2000000000000002 0  -0.3999999999999999 0.2000000000000002 0  -0.2 0.2000000000000002 0  0 0.2000000000000002 0  0.2000000000000002 0.2000000000000002 0  0.3999999999999999 0.2000000000000002 0  0.6000000000000001 0.2000000000000002 0  0.7999999999999998 0.2000000000000002 0  1 0.2000000000000002 0  1.2 0.2000000000000002 0  1.4 0.2000000000000002 0  1.6 0.2000000000000002 0  1.8 0.2000000000000002 0  2 0.2000000000000002 0  -2 0.3999999999999999 0  -1.8 0.3999999999999999 0  -1.6 0.3999999999999999 0  -1.4 0.3999999999999999 0  -1.2 0.3999999999999999 0  -1 0.3999999999999999 0  -0.8 0.3999999999999999 0  -0.6000000000000001 0.3999999999999999 0  -0.3999999999999999 0.3999999999999999 0  -0.2 0.3999999999999999 0  0 0.3999999999999999 0  0.2000000000000002 0.3999999999999999 0  0.3999999999999999 0.3999999999999999 0  0.6000000000000001 0.3999999999999999 0  0.7999999999999998 0.3999999999999999 0  1 0.3999999999999999 0  1.2 0.3999999999999999 0  1.4 0.3999999999999999 0  1.6 0.3999999999999999 0  1.8 0.3999999999999999 0  2 0.3999999999999999 0  -2 0.6000000000000001 0  -1.8 0.6000000000000001 0  -1.6 0.6000000000000001 0  -1.4 0.6000000000000001 0  -1.2 0.6000000000000001 0  -1 0.6000000000000001 0  -0.8 0.6000000000000001 0  -0.6000000000000001 0.6000000000000001 0  -0.3999999999999999 0.6000000000000001 0  -0.2 0.6000000000000001 0  0 0.6000000000000001 0  0.2000000000000002 0.6000000000000001 0  0.3999999999999999 0.6000000000000001 0  0.6000000000000001 0.6000000000000001 0  0.7999999999999998 0.6000000000000001 0  1 0.6000000000000001 0  1.2 0.6000000000000001 0  1.4 0.6000000000000001 0  1.6 0.6000000000000001 0  1.8 0.6000000000000001 0  2 0.6000000000000001 0  -2 0.7999999999999998 0  -1.8 0.7999999999999998 0  -1.6 0.7999999999999998 0  -1.4 0.7999999999999998 0  -1.2 0.7999999999999998 0  -1 0.7999999999999998 0  -0.8 0.7999999999999998 0  -0.6000000000000001 0.7999999999999998 0  -0.3999999999999999 0.7999999999999998 0  -0.2 0.7999999999999998 0  0 0.7999999999999998 0  0.2000000000000002 0.7999999999999998 0  0.3999999999999999 0.7999999999999998 0  0.6000000000000001 0.7999999999999998 0  0.7999999999999998 0.7999999999999998 0  1 0.7999999999999998 0  1.2 0.7999999999999998 0  1.4 0.7999999999999998 0  1.6 0.7999999999999998 0  1.8 0.7999999999999998 0  2 0.7999999999999998 0  -2 1 0  -1.8 1 0  -1.6 1 0  -1.4 1 0  -1.2 1 0  -1 1 0  -0.8 1 0  -0.6000000000000001 1 0  -0.3999999999999999 1 0  -0.2 1 0  0 1 0  0.2000000000000002 1 0  0.3999999999999999 1 0  0.6000000000000001 1 0  0.7999999999999998 1 0  1 1 0  1.2 1 0  1.4 1 0  1.6 1 0  1.8 1 0  2 1 0  -2 1.2 0  -1.8 1.2 0  -1.6 1.2 0  -1.4 1.2 0  -1.2 1.2 0  -1 1.2 0  -0.8 1.2 0  -0.6000000000000001 1.2 0  -0.3999999999999999 1.2 0  -0.2 1.2 0  0 1.2 0  0.2000000000000002 1.2 0  0.3999999999999999 1.2 0  0.6000000000000001 1.2 0  0.7999999999999998 1.2 0  1 1.2 0  1.2 1.2 0  1.4 1.2 0  1.6 1.2 0  1.8 1.2 0  2 1.2 0  -2 1.4 0  -1.8 1.4 0  -1.6 1.4 0  -1.4 1.4 0  -1.2 1.4 0  -1 1.4 0  -0.8 1.4 0  -0.6000000000000001 1.4 0  -0.3999999999999999 1.4 0  -0.2 1.4 0  0 1.4 0  0.2000000000000002 1.4 0  0.3999999999999999 1.4 0  0.6000000000000001 1.4 0  0.7999999999999998 1.4 0  1 1.4 0  1.2 1.4 0  1.4 1.4 0  1.6 1.4 0  1.8 1.4 0  2 1.4 0  -2 1.6 0  -1.8 1.6 0  -1.6 1.6 0  -1.4 1.6 0  -1.2 1.6 0  -1 1.6 0  -0.8 1.6 0  -0.6000000000000001 1.6 0  -0.3999999999999999 1.6 0  -0.2 1.6 0  0 1.6 0  0.2000000000000002 1.6 0  0.3999999999999999 1.6 0  0.6000000000000001 1.6 0  0.7999999999999998 1.6 0  1 1.6 0  1.2 1.6 0  1.4 1.6 0  1.6 1.6 0  1.8 1.6 0  2 1.6 0  -2 1.8 0  -1.8 1.8 0  -1.6 1.8 0  -1.4 1.8 0  -1.2 1.8 0  -1 1.8 0  -0.8 1.8 0  -0.6000000000000001 1.8 0  -0.3999999999999999 1.8 0  -0.2 1.8 0  0 1.8 0  0.2000000000000002 1.8 0  0.3999999999999999 1.8 0  0.6000000000000001 1.8 0  0.7999999999999998 1.8 0  1 1.8 0  1.2 1.8 0  1.4 1.8 0  1.6 1.8 0  1.8 1.8 0  2 1.8 0  -2 2 0  -1.8 2 0  -1.6 2 0  -1.4 2 0  -1.2 2 0  -1 2 0  -0.8 2 0  -0.6000000000000001 2 0  -0.3999999999999999 2 0  -0.2 2 0  0 2 0  0.2000000000000002 2 0  0.3999999999999999 2 0  0.6000000000000001 2 0  0.7999999999999998 2 0  1 2 0  1.2 2 0  1.4 2 0  1.6 2 0  1.8 2 0  2 2 0  </DataArray>
</Points>
<Cells>
[...]
<PointData  Scalars="f_8"> 
<DataArray  type="Float64"  Name="f_8"  format="ascii">3.6573410019173545e-02  3.6576617991428716e-02  3.6577958320659770e-02  3.6578656632108485e-02  3.6579075535365518e-02  3.6579347592527407e-02  3.6579532821296445e-02  3.6579663670275007e-02  3.6579760228664437e-02  3.6579836404250374e-02  3.6579902943908810e-02  3.6579969233669442e-02  3.6580044657597455e-02  3.6580139954272381e-02  3.6580269007999544e-02  3.6580451847316245e-02  3.6580720768793942e-02  3.6581135411540504e-02  3.6581827433286071e-02  3.6583157805347953e-02  3.6586354184353652e-02  3.6596652134889648e-02  3.6597393903665919e-02  3.6598111260260580e-02  3.6598621756939696e-02  3.6598970049887755e-02  3.6599209113494575e-02  3.6599375989779546e-02  3.6599495219745037e-02  3.6599583601965427e-02  3.6599653388589767e-02  3.6599714311170373e-02  3.6599774973591175e-02  3.6599843977451793e-02  3.6599931045911256e-02  3.6600048411822739e-02  3.6600212835904478e-02  3.6600448798409117e-02  3.6600793290056381e-02  3.6601299441787361e-02  3.6602012966495283e-02  3.6602754131566183e-02  3.6656897155389639e-02  3.6656980415440778e-02  3.6657251306018782e-02  3.6657520810964038e-02  3.6657738590042101e-02  3.6657902465368458e-02  3.6658022655020363e-02  3.6658110627620748e-02  3.6658176377658148e-02  3.6658228230966997e-02  3.6658273312193894e-02  3.6658318141864911e-02  3.6658369241977712e-02  3.6658433742342761e-02  3.6658519981097260e-02  3.6658637983163447e-02  3.6658799297089380e-02  3.6659014350094471e-02  3.6659281469929673e-02  3.6659551331522426e-02  3.6659636244096488e-02  3.6753095287557498e-02  3.6752945319509428e-02  3.6752958920727226e-02  3.6753035242123470e-02  3.6753121652658843e-02  3.6753197414184730e-02  3.6753257248356236e-02  3.6753302229671402e-02  3.6753335633188867e-02  3.6753361273396130e-02  3.6753382960072807e-02  3.6753404420400114e-02  3.6753429388052296e-02  3.6753461694568897e-02  3.6753505199439727e-02  3.6753563263287763e-02  3.6753637119580324e-02  3.6753721775566670e-02  3.6753796964235058e-02  3.6753810695072810e-02  3.6753662671329089e-02  3.6882511955763350e-02  3.6882246638430261e-02  3.6882107375740859e-02  3.6882044385300898e-02  3.6882020220619746e-02  3.6882012735697273e-02  3.6882010616224772e-02  3.6882008838339538e-02  3.6882005659565356e-02  3.6882000922648352e-02  3.6881995177991657e-02  3.6881989242504881e-02  3.6881983943312317e-02  3.6881979863965943e-02  3.6881976911233877e-02  3.6881973451821141e-02  3.6881964636591567e-02  3.6881939411920514e-02  3.6881875977725409e-02  3.6881737253538292e-02  3.6881473680312006e-02  3.7041437240934956e-02  3.7041099727192252e-02  3.7040863213204447e-02  3.7040702135365741e-02  3.7040591920052393e-02  3.7040514015292431e-02  3.7040455970355046e-02  3.7040409891617193e-02  3.7040370845436460e-02  3.7040335659240614e-02  3.7040302117399636e-02  3.7040268423972511e-02  3.7040232794554429e-02  3.7040193050052128e-02  3.7040146085062391e-02  3.7040087072218675e-02  3.7040008271693757e-02  3.7039897435151271e-02  3.7039736241858565e-02  3.7039500322599263e-02  3.7039164204976431e-02  3.7225445823599719e-02  3.7225058958678128e-02  3.7224758151501718e-02  3.7224529092658561e-02  3.7224355457436270e-02  3.7224222599871071e-02  3.7224118795207456e-02  3.7224035116673458e-02  3.7223964815128519e-02  3.7223902640709225e-02  3.7223844257249214e-02  3.7223785760423539e-02  3.7223723256455100e-02  3.7223652441994971e-02  3.7223568125402132e-02  3.7223463644870891e-02  3.7223330191359080e-02  3.7223156181961377e-02  3.7222927116504247e-02  3.7222626783203205e-02  3.7222240909857492e-02  3.7429561422153264e-02  3.7429141803324566e-02  3.7428799466229769e-02  3.7428525470148216e-02  3.7428308325808811e-02  3.7428136350393222e-02  3.7427998944743655e-02  3.7427887006309148e-02  3.7427792846929722e-02  3.7427709892296677e-02  3.7427632314225780e-02  3.7427554657632416e-02  3.7427471475302655e-02  3.7427376963257361e-02  3.7427264589139468e-02  3.7427126725536053e-02  3.7426954347995700e-02  3.7426736946005207e-02  3.7426462921381319e-02  3.7426120844144879e-02  3.7425701787093757e-02  3.7648403170471675e-02  3.7647965179278708e-02  3.7647599345809371e-02  3.7647299345308652e-02  3.7647056381922957e-02  3.7646860702499285e-02  3.7646702664956420e-02  3.7646573301301174e-02  3.7646464490954906e-02  3.7646368888403621e-02  3.7646279716818290e-02  3.7646190497867209e-02  3.7646094757404096e-02  3.7645985731423685e-02  3.7645856096447668e-02  3.7645697763324479e-02  3.7645501803521199e-02  3.7645258618231925e-02  3.7644958493575867e-02  3.7644592658662643e-02  3.7644154790520287e-02  3.7876330483342754e-02  3.7875887517282894e-02  3.7875513867132810e-02  3.7875204421265199e-02  3.7874951742075773e-02  3.7874747150352883e-02  3.7874581621896435e-02  3.7874446369335728e-02  3.7874333119192131e-02  3.7874234154518453e-02  3.7874142202252874e-02  3.7874050231163629e-02  3.7873951210059764e-02  3.7873837866125318e-02  3.7873702483181525e-02  3.7873536789390254e-02  3.7873332000006824e-02  3.7873079093995683e-02  3.7872769394601873e-02  3.7872395464004387e-02  3.7871952185594776e-02  3.8107588422338370e-02  3.8107153243840362e-02  3.8106786154225920e-02  3.8106482411342013e-02  3.8106235017248476e-02  3.8106035669615165e-02  3.8105875593857981e-02  3.8105746119297908e-02  3.8105638981585935e-02  3.8105546398728186e-02  3.8105460987897827e-02  3.8105375585954095e-02  3.8105283025607346e-02  3.8105175911608759e-02  3.8105046441472418e-02  3.8104886323049383e-02  3.8104686852445571e-02  3.8104439220015267e-02  3.8104135091793973e-02  3.8103767447433552e-02  3.8103331535221427e-02  3.8336451748868947e-02  3.8336036539949082e-02  3.8335689594412095e-02  3.8335405858511473e-02  3.8335177992900323e-02  3.8334997441455285e-02  3.8334855315614001e-02  3.8334742968736561e-02  3.8334652269253845e-02  3.8334575641088768e-02  3.8334505949113230e-02  3.8334436294806665e-02  3.8334359771629474e-02  3.8334269220221977e-02  3.8334157023838057e-02  3.8334014994444034e-02  3.8333834416157592e-02  3.8333606325535771e-02  3.8333322098079936e-02  3.8332974347729809e-02  3.8332558007212782e-02  3.8557364767993915e-02  3.8556981118357314e-02  3.8556667463483310e-02  3.8556417633921758e-02  3.8556223073506257e-02  3.8556074306311798e-02  3.8555961975697738e-02  3.8555877394599626e-02  3.8555812715589645e-02  3.8555760858395551e-02  3.8555715302888510e-02  3.8555669816394980e-02  3.8555618155085770e-02  3.8555553764775652e-02  3.8555469506877958e-02  3.8555357450622184e-02  3.8555208802931701e-02  3.8555014087615573e-02  3.8554763714907937e-02  3.8554449048940113e-02  3.8554063901083645e-02  3.8765073786762201e-02  3.8764732759935083e-02  3.8764465587144789e-02  3.8764263693352896e-02  3.8764116080012193e-02  3.8764011564814786e-02  3.8763940008730090e-02  3.8763892722177486e-02  3.8763862393422090e-02  3.8763842800040103e-02  3.8763828448037253e-02  3.8763814199505364e-02  3.8763794903496872e-02  3.8763765025649537e-02  3.8763718272466302e-02  3.8763647226342540e-02  3.8763543055517720e-02  3.8763395449707472e-02  3.8763193050904539e-02  3.8762924727863760e-02  3.8762581872924771e-02  3.8954748977479775e-02  3.8954461456501700e-02  3.8954254954646265e-02  3.8954116025361925e-02  3.8954029315222273e-02  3.8953981015804280e-02  3.8953960056819045e-02  3.8953958021084256e-02  3.8953968578752843e-02  3.8953986850316397e-02  3.8954008843170247e-02  3.8954030976165795e-02  3.8954049655056722e-02  3.8954060845930796e-02  3.8954059593777866e-02  3.8954039449719938e-02  3.8953991824073213e-02  3.8953905418029219e-02  3.8953766160509821e-02  3.8953558471163774e-02  3.8953268831598380e-02  3.9122092367561159e-02  3.9121870176987282e-02  3.9121741609477213e-02  3.9121683184798361e-02  3.9121672214971447e-02  3.9121691456063472e-02  3.9121729267771722e-02  3.9121778256897277e-02  3.9121833833528741e-02  3.9121893103631657e-02  3.9121954106182993e-02  3.9122015285042118e-02  3.9122075073133540e-02  3.9122131474127325e-02  3.9122181526240682e-02  3.9122220524352949e-02  3.9122240890003254e-02  3.9122230702723172e-02  3.9122172340075680e-02  3.9122042714317622e-02  3.9121818155480152e-02  3.9263428100952881e-02  3.9263287498711039e-02  3.9263261846352412e-02  3.9263306464840289e-02  3.9263387381869568e-02  3.9263484227123634e-02  3.9263586418254302e-02  3.9263689168906546e-02  3.9263790796416675e-02  3.9263891171060744e-02  3.9263990884873562e-02  3.9264090806196042e-02  3.9264191796617616e-02  3.9264294425745368e-02  3.9264398518022381e-02  3.9264502304255142e-02  3.9264600836698138e-02  3.9264683238039597e-02  3.9264728637055726e-02  3.9264702361245511e-02  3.9264559194617639e-02  3.9375768452851220e-02  3.9375741936801677e-02  3.9375862242574680e-02  3.9376040735705636e-02  3.9376230278847506e-02  3.9376411694801113e-02  3.9376579647339177e-02  3.9376734686562997e-02  3.9376879551721047e-02  3.9377017641502678e-02  3.9377152467371938e-02  3.9377287521735360e-02  3.9377426295238445e-02  3.9377572293319632e-02  3.9377728900955714e-02  3.9377898825044902e-02  3.9378082533137015e-02  3.9378274473896760e-02  3.9378454939464638e-02  3.9378575676504206e-02  3.9378546548352558e-02  3.9456837914827757e-02  3.9457019070267822e-02  3.9457367721052940e-02  3.9457720212243828e-02  3.9458031017884351e-02  3.9458296604599798e-02  3.9458524805566858e-02  3.9458725056622998e-02  3.9458905877574439e-02  3.9459074576891955e-02  3.9459237562054376e-02  3.9459400782500355e-02  3.9459570189598385e-02  3.9459752197774901e-02  3.9459954130874476e-02  3.9460184537028098e-02  3.9460452891590371e-02  3.9460767035851808e-02  3.9461123197395753e-02  3.9461474594158892e-02  3.9461653782269852e-02  3.9504989483316509e-02  3.9505722334201639e-02  3.9506449391357591e-02  3.9507009523084072e-02  3.9507435547127920e-02  3.9507769811614857e-02  3.9508042584665323e-02  3.9508274288092289e-02  3.9508479189935206e-02  3.9508667936695580e-02  3.9508849167775910e-02  3.9509030626661577e-02  3.9509220059418558e-02  3.9509426115180386e-02  3.9509659464340686e-02  3.9509934429089379e-02  3.9510271551201105e-02  3.9510701359298260e-02  3.9511266700060180e-02  3.9512000668190585e-02  3.9512735773513899e-02  3.9518727451427232e-02  3.9521472771650017e-02  3.9522714322197131e-02  3.9523432300613053e-02  3.9523919244060547e-02  3.9524283037602220e-02  3.9524573017371313e-02  3.9524816214284962e-02  3.9525029663958669e-02  3.9525225413421468e-02  3.9525412964949352e-02  3.9525600727673443e-02  3.9525797111436070e-02  3.9526011621891982e-02  3.9526256316193852e-02  3.9526548255002764e-02  3.9526914525650839e-02  3.9527404598896872e-02  3.9528126802142169e-02  3.9529375913262499e-02  3.9532146340302755e-02  </DataArray> 
</PointData> 
</Piece>
</UnstructuredGrid>
</VTKFile>