<?xml version="1.0"?>
<VTKFile type="UnstructuredGrid"  version="0.1"  >
<UnstructuredGrid>
<Piece  NumberOfPoints="441" NumberOfCells="800">
<Points>
<DataArray  type="Float64"  NumberOfComponents="3"  format="ascii">-2 -2 0  -1.8 -2 0  -1.6 -2 0  -1.4 -2 0  -1.2 -2 0  -1 -2 0  -0.8 -2 0  -0.6000000000000001 -2 0  -0.3999999999999999 -2 0  -0.2 -2 0  0 -2 0  0.2000000000000002 -2 0  0.3999999999999999 -2 0  0.6000000000000001 -2 0  0.7999999999999998 -2 0  1 -2 0  1.2 -2 0  1.4 -2 0  1.6 -2 0  1.8 -2 0  2 -2 0  -2 -1.8 0  -1.8 -1.8 0  -1.6 -1.8 0  -1.4 -1.8 0  -1.2 -1.8 0  -1 -1.8 0  -0.8 -1.8 0  -0.6000000000000001 -1.8 0  -0.3999999999999999 -1.8 0  -0.2 -1.8 0  0 -1.8 0  0.2000000000000002 -1.8 0  0.3999999999999999 -1.8 0  0.6000000000000001 -1.8 0  0.7999999999999998 -1.8 0  1 -1.8 0  1.2 -1.8 0  1.4 -1.8 0  1.6 -1.8 0  1.8 -1.8 0  2 -1.8 0  -2 -1.6 0  -1.8 -1.6 0  -1.6 -1.6 0  -1.4 -1.6 0  -1.2 -1.6 0  -1 -1.6 0  -0.8 -1.6 0  -0.6000000000000001 -1.6 0  -0.3999999999999999 -1.6 0  -0.2 -1.6 0  0 -1.6 0  0.2000000000000002 -1.6 0  0.3999999999999999 -1.6 0  0.6000000000000001 -1.6 0  0.7999999999999998 -1.6 0  1 -1.6 0  1.2 -1.6 0  1.4 -1.6 0  1.6 -1.6 0  1.8 -1.6 0  2 -1.6 0  -2 -1.4 0  -1.8 -1.4 0  -1.6 -1.4 0  -1.4 -1.4 0  -1.2 -1.4 0  -1 -1.4 0  -0.8 -1.4 0  -0.6000000000000001 -1.4 0  -0.3999999999999999 -1.4 0  -0.2 -1.4 0  0 -1.4 0  0.2000000000000002 -1.4 0  0.3999999999999999 -1.4 0  0.6000000000000001 -1.4 0  0.7999999999999998 -1.4 0  1 -1.4 0  1.2 -1.4 0  1.4 -1.4 0  1.6 -1.4 0  1.8 -1.4 0  2 -1.4 0  -2 -1.2 0  -1.8 -1.2 0  -1.6 -1.2 0  -1.4 -1.2 0  -1.2 -1.2 0  -1 -1.2 0  -0.8 -1.2 0  -0.6000000000000001 -1.2 0  -0.3999999999999999 -1.2 0  -0.2 -1.2 0  0 -1.2 0  0.2000000000000002 -1.2 0  0.3999999999999999 -1.2 0  0.6000000000000001 -1.2 0  0.7999999999999998 -1.2 0  1 -1.2 0  1.2 -1.2 0  1.4 -1.2 0  1.6 -1.2 0  1.8 -1.2 0  2 -1.2 0  -2 -1 0  -1.8 -1 0  -1.6 -1 0  -1.4 -1 0  -1.2 -1 0  -1 -1 0  -0.8 -1 0  -0.6000000000000001 -1 0  -0.3999999999999999 -1 0  -0.2 -1 0  0 -1 0  0.2000000000000002 -1 0  0.3999999999999999 -1 0  0.6000000000000001 -1 0  0.7999999999999998 -1 0  1 -1 0  1.2 -1 0  1.4 -1 0  1.6 -1 0  1.8 -1 0  2 -1 0  -2 -0.8 0  -1.8 -0.8 0  -1.6 -0.8 0  -1.4 -0.8 0  -1.2 -0.8 0  -1 -0.8 0  -0.8 -0.8 0  -0.6000000000000001 -0.8 0  -0.3999999999999999 -0.8 0  -0.2 -0.8 0  0 -0.8 0  0.2000000000000002 -0.8 0  0.3999999999999999 -0.8 0  0.6000000000000001 -0.8 0  0.7999999999999998 -0.8 0  1 -0.8 0  1.2 -0.8 0  1.4 -0.8 0  1.6 -0.8 0  1.8 -0.8 0  2 -0.8 0  -2 -0.6000000000000001 0  -1.8 -0.6000000000000001 0  -1.6 -0.6000000000000001 0  -1.4 -0.6000000000000001 0  -1.2 -0.6000000000000001 0  -1 -0.6000000000000001 0  -0.8 -0.6000000000000001 0  -0.6000000000000001 -0.6000000000000001 0  -0.3999999999999999 -0.6000000000000001 0  -0.2 -0.6000000000000001 0  0 -0.6000000000000001 0  0.2000000000000002 -0.6000000000000001 0  0.3999999999999999 -0.6000000000000001 0  0.6000000000000001 -0.6000000000000001 0  0.7999999999999998 -0.6000000000000001 0  1 -0.6000000000000001 0  1.2 -0.6000000000000001 0  1.4 -0.6000000000000001 0  1.6 -0.6000000000000001 0  1.8 -0.6000000000000001 0  2 -0.6000000000000001 0  -2 -0.3999999999999999 0  -1.8 -0.3999999999999999 0  -1.6 -0.3999999999999999 0  -1.4 -0.3999999999999999 0  -1.2 -0.3999999999999999 0  -1 -0.3999999999999999 0  -0.8 -0.3999999999999999 0  -0.6000000000000001 -0.3999999999999999 0  -0.3999999999999999 -0.3999999999999999 0  -0.2 -0.3999999999999999 0  0 -0.3999999999999999 0  0.2000000000000002 -0.3999999999999999 0  0.3999999999999999 -0.3999999999999999 0  0.6000000000000001 -0.3999999999999999 0  0.7999999999999998 -0.3999999999999999 0  1 -0.3999999999999999 0  1.2 -0.3999999999999999 0  1.4 -0.3999999999999999 0  1.6 -0.3999999999999999 0  1.8 -0.3999999999999999 0  2 -0.3999999999999999 0  -2 -0.2 0  -1.8 -0.2 0  -1.6 -0.2 0  -1.4 -0.2 0  -1.2 -0.2 0  -1 -0.2 0  -0.8 -0.2 0  -0.6000000000000001 -0.2 0  -0.3999999999999999 -0.2 0  -0.2 -0.2 0  0 -0.2 0  0.2000000000000002 -0.2 0  0.3999999999999999 -0.2 0  0.6000000000000001 -0.2 0  0.7999999999999998 -0.2 0  1 -0.2 0  1.2 -0.2 0  1.4 -0.2 0  1.6 -0.2 0  1.8 -0.2 0  2 -0.2 0  -2 0 0  -1.8 0 0  -1.6 0 0  -1.4 0 0  -1.2 0 0  -1 0 0  -0.8 0 0  -0.6000000000000001 0 0  -0.3999999999999999 0 0  -0.2 0 0  0 0 0  0.2000000000000002 0 0  0.3999999999999999 0 0  0.6000000000000001 0 0  0.7999999999999998 0 0  1 0 0  1.2 0 0  1.4 0 0  1.6 0 0  1.8 0 0  2 0 0  -2 0.2000000000000002 0  -1.8 0.2000000000000002 0  -1.6 0.2000000000000002 0  -1.4 0.2000000000000002 0  -1.2 0.2000000000000002 0  -1 0.2000000000000002 0  -0.8 0.2000000000000002 0  -0.6000000000000001 0.2000000000000002 0  -0.3999999999999999 0.2000000000000002 0  -0.2 0.2000000000000002 0  0 0.2000000000000002 0  0.2000000000000002 0.2000000000000002 0  0.3999999999999999 0.2000000000000002 0  0.6000000000000001 0.2000000000000002 0  0.7999999999999998 0.2000000000000002 0  1 0.2000000000000002 0  1.2 0.2000000000000002 0  1.4 0.2000000000000002 0  1.6 0.2000000000000002 0  1.8 0.2000000000000002 0  2 0.2000000000000002 0  -2 0.3999999999999999 0  -1.8 0.3999999999999999 0  -1.6 0.3999999999999999 0  -1.4 0.3999999999999999 0  -1.2 0.3999999999999999 0  -1 0.3999999999999999 0  -0.8 0.3999999999999999 0  -0.6000000000000001 0.3999999999999999 0  -0.3999999999999999 0.3999999999999999 0  -0.2 0.3999999999999999 0  0 0.3999999999999999 0  0.2000000000000002 0.3999999999999999 0  0.3999999999999999 0.3999999999999999 0  0.6000000000000001 0.3999999999999999 0  0.7999999999999998 0.3999999999999999 0  1 0.3999999999999999 0  1.2 0.3999999999999999 0  1.4 0.3999999999999999 0  1.6 0.3999999999999999 0  1.8 0.3999999999999999 0  2 0.3999999999999999 0  -2 0.6000000000000001 0  -1.8 0.6000000000000001 0  -1.6 0.6000000000000001 0  -1.4 0.6000000000000001 0  -1.2 0.6000000000000001 0  -1 0.6000000000000001 0  -0.8 0.6000000000000001 0  -0.6000000000000001 0.6000000000000001 0  -0.3999999999999999 0.6000000000000001 0  -0.2 0.6000000000000001 0  0 0.6000000000000001 0  0.2000000000000002 0.6000000000000001 0  0.3999999999999999 0.6000000000000001 0  0.6000000000000001 0.6000000000000001 0  0.7999999999999998 0.6000000000000001 0  1 0.6000000000000001 0  1.2 0.6000000000000001 0  1.4 0.6000000000000001 0  1.6 0.6000000000000001 0  1.8 0.6000000000000001 0  2 0.6000000000000001 0  -2 0.7999999999999998 0  -1.8 0.7999999999999998 0  -1.6 0.7999999999999998 0  -1.4 0.7999999999999998 0  -1.2 0.7999999999999998 0  -1 0.7999999999999998 0  -0.8 0.7999999999999998 0  -0.6000000000000001 0.7999999999999998 0  -0.3999999999999999 0.7999999999999998 0  -0.2 0.7999999999999998 0  0 0.7999999999999998 0  0.2000000000000002 0.7999999999999998 0  0.3999999999999999 0.7999999999999998 0  0.6000000000000001 0.7999999999999998 0  0.7999999999999998 0.7999999999999998 0  1 0.7999999999999998 0  1.2 0.7999999999999998 0  1.4 0.7999999999999998 0  1.6 0.7999999999999998 0  1.8 0.7999999999999998 0  2 0.7999999999999998 0  -2 1 0  -1.8 1 0  -1.6 1 0  -1.4 1 0  -1.2 1 0  -1 1 0  -0.8 1 0  -0.6000000000000001 1 0  -0.3999999999999999 1 0  -0.2 1 0  0 1 0  0.2000000000000002 1 0  0.3999999999999999 1 0  0.6000000000000001 1 0  0.7999999999999998 1 0  1 1 0  1.2 1 0  1.4 1 0  1.6 1 0  1.8 1 0  2 1 0  -2 1.2 0  -1.8 1.2 0  -1.6 1.2 0  -1.4 1.2 0  -1.2 1.2 0  -1 1.2 0  -0.8 1.2 0  -0.6000000000000001 1.2 0  -0.3999999999999999 1.2 0  -0.2 1.2 0  0 1.2 0  0.2000000000000002 1.2 0  0.3999999999999999 1.2 0  0.6000000000000001 1.2 0  0.7999999999999998 1.2 0  1 1.2 0  1.2 1.2 0  1.4 1.2 0  1.6 1.2 0  1.8 1.2 0  2 1.2 0  -2 1.4 0  -1.8 1.4 0  -1.6 1.4 0  -1.4 1.4 0  -1.2 1.4 0  -1 1.4 0  -0.8 1.4 0  -0.6000000000000001 1.4 0  -0.3999999999999999 1.4 0  -0.2 1.4 0  0 1.4 0  0.2000000000000002 1.4 0  0.3999999999999999 1.4 0  0.6000000000000001 1.4 0  0.7999999999999998 1.4 0  1 1.4 0  1.2 1.4 0  1.4 1.4 0  1.6 1.4 0  1.8 1.4 0  2 1.4 0  -2 1.6 0  -1.8 1.6 0  -1.6 1.6 0  -1.4 1.6 0  -1.2 1.6 0  -1 1.6 0  -0.8 1.6 0  -0.6000000000000001 1.6 0  -0.3999999999999999 1.6 0  -0.2 1.6 0  0 1.6 0  0.2000000000000002 1.6 0  0.3999999999999999 1.6 0  0.6000000000000001 1.6 0  0.7999999999999998 1.6 0  1 1.6 0  1.2 1.6 0  1.4 1.6 0  1.6 1.6 0  1.8 1.6 0  2 1.6 0  -2 1.8 0  -1.8 1.8 0  -1.6 1.8 0  -1.4 1.8 0  -1.2 1.8 0  -1 1.8 0  -0.8 1.8 0  -0.6000000000000001 1.8 0  -0.3999999999999999 1.8 0  -0.2 1.8 0  0 1.8 0  0.2000000000000002 1.8 0  0.3999999999999999 1.8 0  0.6000000000000001 1.8 0  0.7999999999999998 1.8 0  1 1.8 0  1.2 1.8 0  1.4 1.8 0  1.6 1.8 0  1.8 1.8 0  2 1.8 0  -2 2 0  -1.8 2 0  -1.6 2 0  -1.4 2 0  -1.2 2 0  -1 2 0  -0.8 2 0  -0.6000000000000001 2 0  -0.3999999999999999 2 0  -0.2 2 0  0 2 0  0.2000000000000002 2 0  0.3999999999999999 2 0  0.6000000000000001 2 0  0.7999999999999998 2 0  1 2 0  1.2 2 0  1.4 2 0  1.6 2 0  1.8 2 0  2 2 0  </DataArray>
</Points>
<Cells>
[...]
<PointData  Scalars="f_8"> 
<DataArray  type="Float64"  Name="f_8"  format="ascii">7.0286693550420956e-02  6.9432499958914623e-02  6.7332967477840858e-02  6.4091200338963317e-02  5.9875478284797112e-02  5.4900832452773433e-02  4.9408674530804234e-02  4.3646356067116830e-02  3.7848603859645016e-02  3.2222472206250324e-02  2.6936902414867941e-02  2.2117323491773325e-02  1.7845094609431254e-02  1.4161080174113000e-02  1.1072321356128886e-02  8.5606392657609030e-03  6.5920525213300895e-03  5.1260692130312398e-03  4.1241653240177579e-03  3.5570414579313013e-03  3.4105321095958658e-03  6.9942854775801436e-02  6.9264739365908129e-02  6.7284235138936110e-02  6.4122766500839673e-02  5.9958765029984817e-02  5.5013382821255487e-02  4.9532408631025170e-02  4.3766984047101783e-02  3.7955505427788361e-02  3.2308638342187515e-02  2.6998730269414139e-02  2.2154189567718304e-02  1.7858717049597267e-02  1.4154724841350493e-02  1.1049913310097071e-02  8.5258158992805883e-03  6.5471401292575724e-03  5.0708793963304983e-03  4.0543795366262680e-03  3.4617510868318801e-03  3.2681660453875105e-03  6.9897905386171605e-02  6.9232759968076485e-02  6.7276219020738159e-02  6.4139783886559054e-02  5.9996476907231922e-02  5.5064826278229624e-02  4.9589835793572075e-02  4.3823115361019654e-02  3.8004350889109188e-02  3.2345953739937733e-02  2.7022153228344687e-02  2.2163107110335058e-02  1.7853930991871873e-02  1.4137991715629064e-02  1.1023437267277605e-02  8.4917676532023714e-03  6.5072685797888195e-03  5.0262852676519797e-03  4.0055471785284706e-03  3.4090085578220705e-03  3.2129033913479905e-03  6.9906582229312841e-02  6.9243245024645489e-02  6.7291199519896608e-02  6.4160155651695139e-02  6.0021422053701409e-02  5.5092286504001581e-02  4.9617113829689322e-02  4.3847452239371386e-02  3.8023390336818015e-02  3.2358047668947010e-02  2.7026495794780208e-02  2.2159711918679388e-02  1.7843485929970322e-02  1.4121637459742414e-02  1.1002518647972232e-02  8.4676032374182298e-03  6.4809753832616168e-03  4.9986847626591032e-03  3.9771664297678306e-03  3.3801734730506132e-03  3.1838898133482781e-03  6.9921815417631469e-02  6.9258684111451904e-02  6.7307029866782830e-02  6.4176243175220776e-02  6.0037260722913093e-02  5.5107073275441468e-02  4.9629903291612765e-02  4.3857337719624898e-02  3.8029665830615872e-02  3.2360319048467819e-02  2.7024726165975812e-02  2.2154201496834555e-02  1.7834799026086305e-02  1.4110496693542154e-02  1.0989689010153207e-02  8.4537867691743852e-03  6.4667323112903375e-03  4.9843903724432776e-03  3.9630059616118964e-03  3.3661705956984709e-03  3.1699582738877650e-03  6.9932046093506700e-02  6.9268845439977259e-02  6.7316883666511715e-02  6.4185506089955685e-02  6.0045602914605936e-02  5.5114143619265442e-02  4.9635373742368226e-02  4.3860953961990273e-02  3.8031290587983872e-02  3.2359957441579691e-02  2.7022527699516803e-02  2.2150438948848907e-02  1.7829829321447162e-02  1.4104711852920341e-02  1.0983466164546698e-02  8.4474452405991062e-03  6.4605034755226024e-03  4.9784031756755654e-03  3.9572882286663807e-03  3.3606641132109477e-03  3.1645443039330628e-03  6.9936871014698823e-02  6.9273597212184679e-02  6.7321388313715327e-02  6.4189592433746376e-02  6.0049110674518888e-02  5.5116935269692094e-02  4.9637348322998737e-02  4.3862059717274519e-02  3.8031533100337189e-02  3.2359400782947419e-02  2.7021287690658796e-02  2.2148669369651652e-02  1.7827703366941023e-02  1.4102401942649421e-02  1.0981125272805771e-02  8.4451923211022635e-03  6.4584145547048411e-03  4.9765085872417033e-03  3.9555755242748711e-03  3.3590855752131470e-03  3.1630277453316294e-03  6.9938574069263709e-02  6.9275261291359205e-02  6.7322939668523124e-02  6.4190963059029840e-02  6.0050243079468858e-02  5.5117787116048991e-02  4.9637896319672900e-02  4.3862302016275959e-02  3.8031489535123017e-02  3.2359110621488760e-02  2.7020805047910056e-02  2.2148056896763552e-02  1.7827025171536223e-02  1.4101716808565845e-02  1.0980481123079958e-02  8.4446225574881413e-03  6.4579365087865988e-03  4.9761239414862247e-03  3.9552722939985210e-03  3.3588411288455358e-03  3.1628123749248144e-03  6.9939010676784416e-02  6.9275682322413878e-02  6.7323323399058915e-02  6.4191290533659420e-02  6.0050499756972249e-02  5.5117964180701043e-02  4.9637991474043290e-02  4.3862319601870259e-02  3.8031439906574066e-02  3.2359008817880328e-02  2.7020668933355849e-02  2.2147905045783994e-02  1.7826874822369665e-02  1.4101582184570348e-02  1.0980372334852846e-02  8.4445451705723300e-03  6.4578917281787442e-03  4.9761092582204956e-03  3.9552823842436127e-03  3.3588687998911048e-03  3.1628494065942675e-03  6.9939081140818996e-02  6.9275747908790250e-02  6.7323379866463209e-02  6.4191334531436023e-02  6.0050529187408462e-02  5.5117978424471123e-02  4.9637991439929662e-02  4.3862307583768488e-02  3.8031419260371180e-02  3.2358983502913365e-02  2.7020642990137806e-02  2.2147882095780835e-02  1.7826857671825729e-02  1.4101572592483191e-02  1.0980370970108197e-02  8.4445517436179222e-03  6.4579052482049279e-03  4.9761283456524674e-03  3.9553055646254429e-03  3.3588947185441810e-03  3.1628769293494605e-03  6.9939082210820458e-02  6.9275747918939590e-02  6.7323378514670296e-02  6.4191331698098084e-02  6.0050524972775757e-02  5.5117973152765683e-02  4.9637985626152577e-02  4.3862301865867932e-02  3.8031414306589635e-02  3.2358979910087626e-02  2.7020641191840850e-02  2.2147882298316744e-02  1.7826859831037361e-02  1.4101576436084949e-02  1.0980376060739530e-02  8.4445575693439124e-03  6.4579113217846816e-03  4.9761342926917113e-03  3.9553111837318366e-03  3.3589000028068088e-03  3.1628820462663806e-03  6.9939073109018257e-02  6.9275739157917501e-02  6.7323370188971873e-02  6.4191323883456705e-02  6.0050517753347001e-02  5.5117966634972260e-02  4.9637979936374366e-02  4.3862297133579267e-02  3.8031410638370830e-02  3.2358977362288106e-02  2.7020639749937968e-02  2.2147881869123205e-02  1.7826860250381722e-02  1.4101577490408667e-02  1.0980377517378799e-02  8.4445592080859971e-03  6.4579129601488221e-03  4.9761357992468107e-03  3.9553124770570587e-03  3.3589010375164037e-03  3.1628827908698042e-03  6.9939073617237973e-02  6.9275740637261843e-02  6.7323370425246054e-02  6.4191320911847913e-02  6.0050510126778839e-02  5.5117953597604540e-02  4.9637961483870938e-02  4.3862273960227419e-02  3.8031383989343498e-02  3.2358948823663018e-02  2.7020611016361416e-02  2.2147854527717240e-02  1.7826835610402447e-02  1.4101556474101376e-02  1.0980360612446055e-02  8.4445464701313460e-03  6.4579040471480480e-03  4.9761300204475955e-03  3.9553088446897923e-03  3.3588983187787537e-03  3.1628795665599885e-03  6.9939251200859129e-02  6.9275914826241361e-02  6.7323525072452803e-02  6.4191442066253906e-02  6.0050587320476453e-02  5.5117980722495130e-02  4.9637937164024065e-02  4.3862201382025685e-02  3.8031270224448653e-02  3.2358803754203504e-02  2.7020446028510673e-02  2.2147681164091271e-02  1.7826664358215071e-02  1.4101395820635807e-02  1.0980216436439644e-02  8.4444217746814168e-03  6.4577989918914256e-03  4.9760421866042459e-03  3.9552336663683449e-03  3.3588296307011760e-03  3.1628102407831008e-03  6.9940338815731917e-02  6.9276973275947298e-02  6.7324488960039189e-02  6.4192253960522513e-02  6.0051201902516060e-02  5.5118368119341586e-02  4.9638085028739953e-02  4.3862115321292416e-02  3.8030972376665452e-02  3.2358329623499452e-02  2.7019839987518515e-02  2.2146991260199918e-02  1.7825937139210511e-02  1.4100671829226575e-02  1.0979526844896250e-02  8.4437864010168395e-03  6.4572257200249976e-03  4.9755276501024740e-03  3.9547649666382351e-03  3.3583868368594070e-03  3.1623694327999863e-03  6.9944277325711277e-02  6.9280812354544793e-02  6.7328052339133262e-02  6.4195378911007503e-02  6.0053748031820009e-02  5.5120227639030357e-02  4.9639192517658089e-02  4.3862454488261787e-02  3.8030577751674031e-02  3.2357282200278767e-02  2.7018257176590985e-02  2.2145012678843192e-02  1.7823708481920660e-02  1.4098329226191869e-02  1.0977183789742207e-02  8.4415246855873600e-03  6.4550910615467881e-03  4.9735300107060423e-03  3.9528830485008317e-03  3.3565759082358417e-03  3.1605714643902641e-03  6.9954183278385026e-02  6.9290536357798277e-02  6.7337305481554852e-02  6.4203849472528482e-02  6.0061109410727329e-02  5.5126167093338577e-02  4.9643451197867297e-02  4.3864866535076770e-02  3.8031097696578441e-02  3.2355993970383093e-02  2.7015363008268293e-02  2.2140804787924150e-02  1.7818529492671008e-02  1.4092528744614648e-02  1.0971078230101322e-02  8.4353659734036496e-03  6.4490477293123920e-03  4.9676820055542109e-03  3.9472296295833924e-03  3.3510544563397963e-03  3.1550838608528967e-03  6.9971309761387684e-02  6.9307677823040870e-02  6.7354485818749407e-02  6.4220791814244171e-02  6.0077224406913841e-02  5.5140651225950126e-02  4.9655442852015549e-02  4.3873609334233475e-02  3.8036072259303097e-02  3.2356994875060011e-02  2.7012513581541074e-02  2.2134515711424215e-02  1.7809416495136513e-02  1.4081309201314495e-02  1.0958466695943555e-02  8.4219856123157119e-03  6.4353696542035106e-03  4.9539989423423936e-03  3.9336647766955585e-03  3.3376009659693601e-03  3.1416646262018067e-03  6.9985322314718809e-02  6.9323455476188109e-02  6.7374334866402819e-02  6.4245230538918327e-02  6.0105176451782059e-02  5.5169960505821382e-02  4.9683471458393032e-02  4.3897783477582886e-02  3.8054300500142010e-02  3.2367923511847786e-02  2.7015615645932602e-02  2.2130034516305502e-02  1.7798201386351280e-02  1.4064589433281646e-02  1.0937609766388467e-02  8.3982808779646673e-03  6.4098692927463891e-03  4.9274387474685013e-03  3.9064776645727330e-03  3.3100237050639031e-03  3.1139138645265500e-03  6.9947551576269834e-02  6.9299335043595783e-02  6.7373737768737577e-02  6.4268667293084211e-02  6.0148064685125194e-02  5.5225281292556182e-02  4.9743537978524890e-02  4.3955452885937295e-02  3.8103767391542101e-02  3.2405154888391421e-02  2.7038469396751693e-02  2.2138112589952765e-02  1.7792504320473509e-02  1.4047049247659935e-02  1.0910579269721860e-02  8.3640508385488220e-03  6.3702769275091860e-03  4.8836318363589008e-03  3.8589232515345686e-03  3.2589216245452468e-03  3.0603313531795827e-03  6.9608044322489987e-02  6.9133412877347672e-02  6.7325949908878371e-02  6.4301312586796347e-02  6.0233134266791347e-02  5.5340502627315866e-02  4.9870708872652589e-02  4.4079948099936150e-02  3.8214523233651085e-02  3.2494714199513650e-02  2.7102862873465455e-02  2.2176490063889946e-02  1.7806522044369510e-02  1.4040070461045611e-02  1.0886758180403033e-02  8.3273480277524237e-03  6.3233998302015711e-03  4.8268061554280752e-03  3.7882692235986413e-03  3.1640042684764873e-03  2.9201158560281581e-03  </DataArray> 
</PointData> 
</Piece>
</UnstructuredGrid>
</VTKFile>