<?xml version="1.0"?>
<VTKFile type="UnstructuredGrid"  version="0.1"  >
<UnstructuredGrid>
<Piece  NumberOfPoints="441" NumberOfCells="800">
<Points>
<DataArray  type="Float64"  NumberOfComponents="3"  format="ascii">-2 -2 0  -1.8 -2 0  -1.6 -2 0  -1.4 -2 0  -1.2 -2 0  -1 -2 0  -0.8 -2 0  -0.6000000000000001 -2 0  -0.3999999999999999 -2 0  -0.2 -2 0  0 -2 0  0.2000000000000002 -2 0  0.3999999999999999 -2 0  0.6000000000000001 -2 0  0.7999999999999998 -2 0  1 -2 0  1.2 -2 0  1.4 -2 0  1.6 -2 0  1.8 -2 0  2 -2 0  -2 -1.8 0  -1.8 -1.8 0  -1.6 -1.8 0  -1.4 -1.8 0  -1.2 -1.8 0  -1 -1.8 0  -0.8 -1.8 0  -0.6000000000000001 -1.8 0  -0.3999999999999999 -1.8 0  -0.2 -1.8 0  0 -1.8 0  0.2000000000000002 -1.8 0  0.3999999999999999 -1.8 0  0.6000000000000001 -1.8 0  0.7999999999999998 -1.8 0  1 -1.8 0  1.2 -1.8 0  1.4 -1.8 0  1.6 -1.8 0  1.8 -1.8 0  2 -1.8 0  -2 -1.6 0  -1.8 -1.6 0  -1.6 -1.6 0  -1.4 -1.6 0  -1.2 -1.6 0  -1 -1.6 0  -0.8 -1.6 0  -0.6000000000000001 -1.6 0  -0.3999999999999999 -1.6 0  -0.2 -1.6 0  0 -1.6 0  0.2000000000000002 -1.6 0  0.3999999999999999 -1.6 0  0.6000000000000001 -1.6 0  0.7999999999999998 -1.6 0  1 -1.6 0  1.2 -1.6 0  1.4 -1.6 0  1.6 -1.6 0  1.8 -1.6 0  2 -1.6 0  -2 -1.4 0  -1.8 -1.4 0  -1.6 -1.4 0  -1.4 -1.4 0  -1.2 -1.4 0  -1 -1.4 0  -0.8 -1.4 0  -0.6000000000000001 -1.4 0  -0.3999999999999999 -1.4 0  -0.2 -1.4 0  0 -1.4 0  0.2000000000000002 -1.4 0  0.3999999999999999 -1.4 0  0.6000000000000001 -1.4 0  0.7999999999999998 -1.4 0  1 -1.4 0  1.2 -1.4 0  1.4 -1.4 0  1.6 -1.4 0  1.8 -1.4 0  2 -1.4 0  -2 -1.2 0  -1.8 -1.2 0  -1.6 -1.2 0  -1.4 -1.2 0  -1.2 -1.2 0  -1 -1.2 0  -0.8 -1.2 0  -0.6000000000000001 -1.2 0  -0.3999999999999999 -1.2 0  -0.2 -1.2 0  0 -1.2 0  0.2000000000000002 -1.2 0  0.3999999999999999 -1.2 0  0.6000000000000001 -1.2 0  0.7999999999999998 -1.2 0  1 -1.2 0  1.2 -1.2 0  1.4 -1.2 0  1.6 -1.2 0  1.8 -1.2 0  2 -1.2 0  -2 -1 0  -1.8 -1 0  -1.6 -1 0  -1.4 -1 0  -1.2 -1 0  -1 -1 0  -0.8 -1 0  -0.6000000000000001 -1 0  -0.3999999999999999 -1 0  -0.2 -1 0  0 -1 0  0.2000000000000002 -1 0  0.3999999999999999 -1 0  0.6000000000000001 -1 0  0.7999999999999998 -1 0  1 -1 0  1.2 -1 0  1.4 -1 0  1.6 -1 0  1.8 -1 0  2 -1 0  -2 -0.8 0  -1.8 -0.8 0  -1.6 -0.8 0  -1.4 -0.8 0  -1.2 -0.8 0  -1 -0.8 0  -0.8 -0.8 0  -0.6000000000000001 -0.8 0  -0.3999999999999999 -0.8 0  -0.2 -0.8 0  0 -0.8 0  0.2000000000000002 -0.8 0  0.3999999999999999 -0.8 0  0.6000000000000001 -0.8 0  0.7999999999999998 -0.8 0  1 -0.8 0  1.2 -0.8 0  1.4 -0.8 0  1.6 -0.8 0  1.8 -0.8 0  2 -0.8 0  -2 -0.6000000000000001 0  -1.8 -0.6000000000000001 0  -1.6 -0.6000000000000001 0  -1.4 -0.6000000000000001 0  -1.2 -0.6000000000000001 0  -1 -0.6000000000000001 0  -0.8 -0.6000000000000001 0  -0.6000000000000001 -0.6000000000000001 0  -0.3999999999999999 -0.6000000000000001 0  -0.2 -0.6000000000000001 0  0 -0.6000000000000001 0  0.2000000000000002 -0.6000000000000001 0  0.3999999999999999 -0.6000000000000001 0  0.6000000000000001 -0.6000000000000001 0  0.7999999999999998 -0.6000000000000001 0  1 -0.6000000000000001 0  1.2 -0.6000000000000001 0  1.4 -0.6000000000000001 0  1.6 -0.6000000000000001 0  1.8 -0.6000000000000001 0  2 -0.6000000000000001 0  -2 -0.3999999999999999 0  -1.8 -0.3999999999999999 0  -1.6 -0.3999999999999999 0  -1.4 -0.3999999999999999 0  -1.2 -0.3999999999999999 0  -1 -0.3999999999999999 0  -0.8 -0.3999999999999999 0  -0.6000000000000001 -0.3999999999999999 0  -0.3999999999999999 -0.3999999999999999 0  -0.2 -0.3999999999999999 0  0 -0.3999999999999999 0  0.2000000000000002 -0.3999999999999999 0  0.3999999999999999 -0.3999999999999999 0  0.6000000000000001 -0.3999999999999999 0  0.7999999999999998 -0.3999999999999999 0  1 -0.3999999999999999 0  1.2 -0.3999999999999999 0  1.4 -0.3999999999999999 0  1.6 -0.3999999999999999 0  1.8 -0.3999999999999999 0  2 -0.3999999999999999 0  -2 -0.2 0  -1.8 -0.2 0  -1.6 -0.2 0  -1.4 -0.2 0  -1.2 -0.2 0  -1 -0.2 0  -0.8 -0.2 0  -0.6000000000000001 -0.2 0  -0.3999999999999999 -0.2 0  -0.2 -0.2 0  0 -0.2 0  0.2000000000000002 -0.2 0  0.3999999999999999 -0.2 0  0.6000000000000001 -0.2 0  0.7999999999999998 -0.2 0  1 -0.2 0  1.2 -0.2 0  1.4 -0.2 0  1.6 -0.2 0  1.8 -0.2 0  2 -0.2 0  -2 0 0  -1.8 0 0  -1.6 0 0  -1.4 0 0  -1.2 0 0  -1 0 0  -0.8 0 0  -0.6000000000000001 0 0  -0.3999999999999999 0 0  -0.2 0 0  0 0 0  0.2000000000000002 0 0  0.3999999999999999 0 0  0.6000000000000001 0 0  0.7999999999999998 0 0  1 0 0  1.2 0 0  1.4 0 0  1.6 0 0  1.8 0 0  2 0 0  -2 0.2000000000000002 0  -1.8 0.2000000000000002 0  -1.6 0.2000000000000002 0  -1.4 0.2000000000000002 0  -1.2 0.2000000000000002 0  -1 0.2000000000000002 0  -0.8 0.2000000000000002 0  -0.6000000000000001 0.2000000000000002 0  -0.3999999999999999 0.2000000000000002 0  -0.2 0.2000000000000002 0  0 0.2000000000000002 0  0.2000000000000002 0.2000000000000002 0  0.3999999999999999 0.2000000000000002 0  0.6000000000000001 0.2000000000000002 0  0.7999999999999998 0.2000000000000002 0  1 0.2000000000000002 0  1.2 0.2000000000000002 0  1.4 0.2000000000000002 0  1.6 0.2000000000000002 0  1.8 0.2000000000000002 0  2 0.2000000000000002 0  -2 0.3999999999999999 0  -1.8 0.3999999999999999 0  -1.6 0.3999999999999999 0  -1.4 0.3999999999999999 0  -1.2 0.3999999999999999 0  -1 0.3999999999999999 0  -0.8 0.3999999999999999 0  -0.6000000000000001 0.3999999999999999 0  -0.3999999999999999 0.3999999999999999 0  -0.2 0.3999999999999999 0  0 0.3999999999999999 0  0.2000000000000002 0.3999999999999999 0  0.3999999999999999 0.3999999999999999 0  0.6000000000000001 0.3999999999999999 0  0.7999999999999998 0.3999999999999999 0  1 0.3999999999999999 0  1.2 0.3999999999999999 0  1.4 0.3999999999999999 0  1.6 0.3999999999999999 0  1.8 0.3999999999999999 0  2 0.3999999999999999 0  -2 0.6000000000000001 0  -1.8 0.6000000000000001 0  -1.6 0.6000000000000001 0  -1.4 0.6000000000000001 0  -1.2 0.6000000000000001 0  -1 0.6000000000000001 0  -0.8 0.6000000000000001 0  -0.6000000000000001 0.6000000000000001 0  -0.3999999999999999 0.6000000000000001 0  -0.2 0.6000000000000001 0  0 0.6000000000000001 0  0.2000000000000002 0.6000000000000001 0  0.3999999999999999 0.6000000000000001 0  0.6000000000000001 0.6000000000000001 0  0.7999999999999998 0.6000000000000001 0  1 0.6000000000000001 0  1.2 0.6000000000000001 0  1.4 0.6000000000000001 0  1.6 0.6000000000000001 0  1.8 0.6000000000000001 0  2 0.6000000000000001 0  -2 0.7999999999999998 0  -1.8 0.7999999999999998 0  -1.6 0.7999999999999998 0  -1.4 0.7999999999999998 0  -1.2 0.7999999999999998 0  -1 0.7999999999999998 0  -0.8 0.7999999999999998 0  -0.6000000000000001 0.7999999999999998 0  -0.3999999999999999 0.7999999999999998 0  -0.2 0.7999999999999998 0  0 0.7999999999999998 0  0.2000000000000002 0.7999999999999998 0  0.3999999999999999 0.7999999999999998 0  0.6000000000000001 0.7999999999999998 0  0.7999999999999998 0.7999999999999998 0  1 0.7999999999999998 0  1.2 0.7999999999999998 0  1.4 0.7999999999999998 0  1.6 0.7999999999999998 0  1.8 0.7999999999999998 0  2 0.7999999999999998 0  -2 1 0  -1.8 1 0  -1.6 1 0  -1.4 1 0  -1.2 1 0  -1 1 0  -0.8 1 0  -0.6000000000000001 1 0  -0.3999999999999999 1 0  -0.2 1 0  0 1 0  0.2000000000000002 1 0  0.3999999999999999 1 0  0.6000000000000001 1 0  0.7999999999999998 1 0  1 1 0  1.2 1 0  1.4 1 0  1.6 1 0  1.8 1 0  2 1 0  -2 1.2 0  -1.8 1.2 0  -1.6 1.2 0  -1.4 1.2 0  -1.2 1.2 0  -1 1.2 0  -0.8 1.2 0  -0.6000000000000001 1.2 0  -0.3999999999999999 1.2 0  -0.2 1.2 0  0 1.2 0  0.2000000000000002 1.2 0  0.3999999999999999 1.2 0  0.6000000000000001 1.2 0  0.7999999999999998 1.2 0  1 1.2 0  1.2 1.2 0  1.4 1.2 0  1.6 1.2 0  1.8 1.2 0  2 1.2 0  -2 1.4 0  -1.8 1.4 0  -1.6 1.4 0  -1.4 1.4 0  -1.2 1.4 0  -1 1.4 0  -0.8 1.4 0  -0.6000000000000001 1.4 0  -0.3999999999999999 1.4 0  -0.2 1.4 0  0 1.4 0  0.2000000000000002 1.4 0  0.3999999999999999 1.4 0  0.6000000000000001 1.4 0  0.7999999999999998 1.4 0  1 1.4 0  1.2 1.4 0  1.4 1.4 0  1.6 1.4 0  1.8 1.4 0  2 1.4 0  -2 1.6 0  -1.8 1.6 0  -1.6 1.6 0  -1.4 1.6 0  -1.2 1.6 0  -1 1.6 0  -0.8 1.6 0  -0.6000000000000001 1.6 0  -0.3999999999999999 1.6 0  -0.2 1.6 0  0 1.6 0  0.2000000000000002 1.6 0  0.3999999999999999 1.6 0  0.6000000000000001 1.6 0  0.7999999999999998 1.6 0  1 1.6 0  1.2 1.6 0  1.4 1.6 0  1.6 1.6 0  1.8 1.6 0  2 1.6 0  -2 1.8 0  -1.8 1.8 0  -1.6 1.8 0  -1.4 1.8 0  -1.2 1.8 0  -1 1.8 0  -0.8 1.8 0  -0.6000000000000001 1.8 0  -0.3999999999999999 1.8 0  -0.2 1.8 0  0 1.8 0  0.2000000000000002 1.8 0  0.3999999999999999 1.8 0  0.6000000000000001 1.8 0  0.7999999999999998 1.8 0  1 1.8 0  1.2 1.8 0  1.4 1.8 0  1.6 1.8 0  1.8 1.8 0  2 1.8 0  -2 2 0  -1.8 2 0  -1.6 2 0  -1.4 2 0  -1.2 2 0  -1 2 0  -0.8 2 0  -0.6000000000000001 2 0  -0.3999999999999999 2 0  -0.2 2 0  0 2 0  0.2000000000000002 2 0  0.3999999999999999 2 0  0.6000000000000001 2 0  0.7999999999999998 2 0  1 2 0  1.2 2 0  1.4 2 0  1.6 2 0  1.8 2 0  2 2 0  </DataArray>
</Points>
<Cells>
[...]
<PointData  Scalars="f_8"> 
<DataArray  type="Float64"  Name="f_8"  format="ascii">1.4185947023232282e-01  1.3493065969340007e-01  1.1910453249627964e-01  9.7692678673496763e-02  7.4597015758576288e-02  5.3149936365342966e-02  3.5428326409394660e-02  2.2158252093393727e-02  1.3044828129833432e-02  7.2533984715431720e-03  3.8231764275002580e-03  1.9176255663508090e-03  9.1905228732120964e-04  4.2271430854284430e-04  1.8745887774394417e-04  8.0557265867868460e-05  3.3740840626677756e-05  1.3892821662100462e-05  5.7557027316610504e-06  2.6511049677402740e-06  1.9158135666389443e-06  1.4003754172050881e-01  1.3463829513649864e-01  1.1979110764753015e-01  9.8763736339837885e-02  7.5560583796046230e-02  5.3724455027742805e-02  3.5556232516457328e-02  2.1938895007757211e-02  1.2638753051398563e-02  6.8059347535555535e-03  3.4278234291164650e-03  1.6140070881847039e-03  7.0887895860861244e-04  2.8879154162559907e-04  1.0778322241751772e-04  3.5817573548362754e-05  9.8010750220325077e-06  1.5379488322523606e-06  -5.7063075273427671e-07  -8.9424123740631920e-07  -9.2458033375389588e-07  1.4008740106289019e-01  1.3478232713690474e-01  1.2006694732756876e-01  9.9080236287298076e-02  7.5795973733608746e-02  5.3802162447057815e-02  3.5472438407682987e-02  2.1745430471485291e-02  1.2406037796285303e-02  6.5914107319866942e-03  3.2621123600868351e-03  1.5030477486992887e-03  6.4370501599458722e-04  2.5537214456642656e-04  9.3282186185115074e-05  3.1054559962560632e-05  9.2702755067196272e-06  2.4286867631877403e-06  5.6120981654571268e-07  1.4956528076587598e-07  1.0391153515102076e-07  1.4016843459321435e-01  1.3486806063443452e-01  1.2015377527252280e-01  9.9149756494960245e-02  7.5826992042845015e-02  5.3785969266250962e-02  3.5418431250505311e-02  2.1674857395745779e-02  1.2340518734852193e-02  6.5443260299011064e-03  3.2365169572239161e-03  1.4947073148203220e-03  6.4571142690746444e-04  2.6160400855893885e-04  9.9848891620446769e-05  3.6211256723762721e-05  1.2678746177766820e-05  4.4082468394661889e-06  1.5983580216145651e-06  6.7801145026061789e-07  4.7059712182937059e-07  1.4018180937339617e-01  1.3488074910680492e-01  1.2016376235390815e-01  9.9154297964865454e-02  7.5824284902300712e-02  5.3777041772525680e-02  3.5407196065893549e-02  2.1666074879605091e-02  1.2337296209342784e-02  6.5469295763784154e-03  3.2429579152857780e-03  1.5022668891421450e-03  6.5226907994208824e-04  2.6617939362898456e-04  1.0244000815104106e-04  3.7329969340652845e-05  1.2931051606310768e-05  4.2635410870364770e-06  1.3299896903181787e-06  3.9643016696671508e-07  1.8184140436971871e-07  1.4018125029718351e-01  1.3487992062618825e-01  1.2016260222817313e-01  9.9152818650929980e-02  7.5822715748642633e-02  5.3775896324172900e-02  3.5407073825144270e-02  2.1667276935006769e-02  1.2339570882914142e-02  6.5495755359072701e-03  3.2452014614254439e-03  1.5036269243049274e-03  6.5268918186602042e-04  2.6591782192917919e-04  1.0185779540797212e-04  3.6721134239722484e-05  1.2455108482687660e-05  3.9612092212759258e-06  1.1727319421381801e-06  3.3022504380814681e-07  1.4780005752316406e-07  1.4018105440280795e-01  1.3487970604211055e-01  1.2016240081296473e-01  9.9152674088187301e-02  7.5822678616607964e-02  5.3776004715780625e-02  3.5407317407431617e-02  2.1667571805176568e-02  1.2339781404860870e-02  6.5495828672614631e-03  3.2449716162284612e-03  1.5032271310024600e-03  6.5224437100962066e-04  2.6554392969410331e-04  1.0161621104806646e-04  3.6612745938947744e-05  1.2443015848418073e-05  3.9999077659234884e-06  1.2280826496029341e-06  3.8652547277618647e-07  2.0575217803006492e-07  1.4018108223236292e-01  1.3487973944919468e-01  1.2016243883425234e-01  9.9152714411236353e-02  7.5822716712403565e-02  5.3776032601558450e-02  3.5407323499084965e-02  2.1667544675527176e-02  1.2339717806402299e-02  6.5494947198550934e-03  3.2448845598940040e-03  1.5031691405947955e-03  6.5223170661628574e-04  2.6557420231550818e-04  1.0167232040328329e-04  3.6673337371949556e-05  1.2491989262769637e-05  4.0303773937494683e-06  1.2410218318373788e-06  3.8724211012944606e-07  2.0143185090976499e-07  1.4018108292508499e-01  1.3487974018397941e-01  1.2016243930694323e-01  9.9152714176763801e-02  7.5822715306201771e-02  5.3776029772580052e-02  3.5407319603782170e-02  2.1667541166928449e-02  1.2339717383628558e-02  6.5495005112156867e-03  3.2448983187711969e-03  1.5031895590710649e-03  6.5225433243916854e-04  2.6559336035021836e-04  1.0168381949119103e-04  3.6676166233155177e-05  1.2488112076454477e-05  4.0231269430216922e-06  1.2332658110681803e-06  3.8020730980564260e-07  1.9441574321386934e-07  1.4018108222551770e-01  1.3487973933869768e-01  1.2016243837000617e-01  9.9152713245697979e-02  7.5822714518964177e-02  5.3776029296598027e-02  3.5407319611855177e-02  2.1667541782030397e-02  1.2339718571642469e-02  6.5495019483854848e-03  3.2448993506793938e-03  1.5031893872131099e-03  6.5225241308500661e-04  2.6558977671952311e-04  1.0167933636240054e-04  3.6671894330167873e-05  1.2485005843409264e-05  4.0216399585947663e-06  1.2333261605786736e-06  3.8141723156170264e-07  1.9622340999476502e-07  1.4018108231135415e-01  1.3487973945212797e-01  1.2016243850856358e-01  9.9152713401810658e-02  7.5822714677694969e-02  5.3776029433781916e-02  3.5407319693343549e-02  2.1667541764669496e-02  1.2339718408358350e-02  6.5495016031933435e-03  3.2448988277647963e-03  1.5031887636461933e-03  6.5225184570135851e-04  2.6558945644910491e-04  1.0167940019127910e-04  3.6672347629313733e-05  1.2485711204976452e-05  4.0223848391984738e-06  1.2339309150475681e-06  3.8183061067162901e-07  1.9657363605071170e-07  1.4018108240436888e-01  1.3487973948232140e-01  1.2016243845498742e-01  9.9152713269703555e-02  7.5822714495847307e-02  5.3776029245500602e-02  3.5407319542389529e-02  2.1667541681915176e-02  1.2339718405506713e-02  6.5495016758329166e-03  3.2448989639023863e-03  1.5031889501672929e-03  6.5225206744109533e-04  2.6558968993913457e-04  1.0167961056674648e-04  3.6672495705014021e-05  1.2485768344578179e-05  4.0223445581808861e-06  1.2338072210123430e-06  3.8164424484734493e-07  1.9634050350319368e-07  1.4018108238575827e-01  1.3487973967306230e-01  1.2016243893146387e-01  9.9152713924787084e-02  7.5822715117267347e-02  5.3776029619222836e-02  3.5407319544551792e-02  2.1667541321394746e-02  1.2339717802884311e-02  6.5495009983869961e-03  3.2448983558817411e-03  1.5031884912460002e-03  6.5225176921583563e-04  2.6558951913116090e-04  1.0167951963801076e-04  3.6672445849024086e-05  1.2485738915377564e-05  4.0223307474971400e-06  1.2338115451997056e-06  3.8166713420273234e-07  1.9637275825558375e-07  1.4018107443588704e-01  1.3487973307359802e-01  1.2016243393661609e-01  9.9152711160974710e-02  7.5822715123892631e-02  5.3776032402625601e-02  3.5407324411615093e-02  2.1667547085571573e-02  1.2339723226678955e-02  6.5495052107260388e-03  3.2449010397237331e-03  1.5031898083197469e-03  6.5225213497801323e-04  2.6558937650997499e-04  1.0167920245052381e-04  3.6672142944620025e-05  1.2485522045610323e-05  4.0222025917453610e-06  1.2337466979783100e-06  3.8163734171763798e-07  1.9635822811992274e-07  1.4018114004010421e-01  1.3487978137926379e-01  1.2016245851955223e-01  9.9152710849654269e-02  7.5822694111977396e-02  5.3775999171430257e-02  3.5407289088166760e-02  2.1667518156637484e-02  1.2339705179897242e-02  6.5494981393655009e-03  3.2449020207595131e-03  1.5031949581573269e-03  6.5225822804500699e-04  2.6559452900601165e-04  1.0168276552751426e-04  3.6674233585017642e-05  1.2486557982062629e-05  4.0226083796364964e-06  1.2338351224029417e-06  3.8160019371871576e-07  1.9629972562690376e-07  1.4018116742948639e-01  1.3487983343323451e-01  1.2016257079402355e-01  9.9152873347283024e-02  7.5822864978717833e-02  5.3776129256737304e-02  3.5407345699439548e-02  2.1667497327445603e-02  1.2339628278270669e-02  6.5493977332317394e-03  3.2448068466441608e-03  1.5031215280206470e-03  6.5221048139894660e-04  2.6556830839510355e-04  1.0167102135879109e-04  3.6670533955962913e-05  1.2486485915419130e-05  4.0237326498196758e-06  1.2351014985058904e-06  3.8269348968771092e-07  1.9719452690890430e-07  1.4017788319314481e-01  1.3487705220145260e-01  1.2016056388892817e-01  9.9151784747290264e-02  7.5822699456491588e-02  5.3776733959830139e-02  3.5408429495887322e-02  2.1668715696810469e-02  1.2340695914929182e-02  6.5501624871991595e-03  3.2452525685190050e-03  1.5033186329427403e-03  6.5225555984928241e-04  2.6554286033630492e-04  1.0162643105290870e-04  3.6631115318387931e-05  1.2459280798235540e-05  4.0075872485917439e-06  1.2263717919606199e-06  3.7788418700198083e-07  1.9378258835309262e-07  1.4017782882992752e-01  1.3487639430503107e-01  1.2015774937867824e-01  9.9146130346255648e-02  7.5815004098258434e-02  5.3768933507767312e-02  3.5402480253080210e-02  2.1665614045816739e-02  1.2340252002488557e-02  6.5514406179557408e-03  3.2471972369537941e-03  1.5051716251661981e-03  6.5366194667532043e-04  2.6645287929734162e-04  1.0214212735157904e-04  3.6888991441538083e-05  1.2571661560099034e-05  4.0477698980374222e-06  1.2350902176024329e-06  3.7534173281374615e-07  1.8988544062664362e-07  1.4026278308514889e-01  1.3495726585669635e-01  1.2022332071048641e-01  9.9180892683149266e-02  7.5810816480370691e-02  5.3730913659597340e-02  3.5345688612405224e-02  2.1606928388585727e-02  1.2291606766370830e-02  6.5175436788114365e-03  3.2270592652044782e-03  1.4950722347973162e-03  6.4960798806032297e-04  2.6541859096594525e-04  1.0230059194469916e-04  3.7341372615049506e-05  1.2973750301094455e-05  4.3219877369059389e-06  1.4033291816342522e-06  4.8184343826441003e-07  2.7183333984413684e-07  1.4041304222742704e-01  1.3519486119549673e-01  1.2054343406361875e-01  9.9484279606360346e-02  7.5996005280034223e-02  5.3752533665234546e-02  3.5224209034579630e-02  2.1402759024191930e-02  1.2069868497940709e-02  6.3241263867156129e-03  3.0820891652492523e-03  1.3986786649932388e-03  5.9167852259121411e-04  2.3356297505415359e-04  8.6132218406452247e-05  2.9722432688948111e-05  9.6315131904008412e-06  2.9613496256086701e-06  8.9615291065615922e-07  3.0434350981253463e-07  1.5733923338577780e-07  1.3863902091681790e-01  1.3492139121688132e-01  1.2126576615852522e-01  1.0061862364980910e-01  7.7028592520029998e-02  5.4370986398367335e-02  3.5354732633813724e-02  2.1150791288975117e-02  1.1615936306317009e-02  5.8335978970541404e-03  2.6595746515878809e-03  1.0849335322399133e-03  3.8352522718878624e-04  1.0755535505891753e-04  1.5498489502395479e-05  -7.3745234735884171e-06  -8.8203943785677111e-06  -5.8415141947435911e-06  -3.2368422695409567e-06  -1.7762003447228730e-06  -1.2917869135854441e-06  </DataArray> 
</PointData> 
</Piece>
</UnstructuredGrid>
</VTKFile>