<?xml version="1.0"?>
<VTKFile type="UnstructuredGrid"  version="0.1"  >
<UnstructuredGrid>
<Piece  NumberOfPoints="441" NumberOfCells="800">
<Points>
<DataArray  type="Float64"  NumberOfComponents="3"  format="ascii">-2 -2 0  -1.8 -2 0  -1.6 -2 0  -1.4 -2 0  -1.2 -2 0  -1 -2 0  -0.8 -2 0  -0.6000000000000001 -2 0  -0.3999999999999999 -2 0  -0.2 -2 0  0 -2 0  0.2000000000000002 -2 0  0.3999999999999999 -2 0  0.6000000000000001 -2 0  0.7999999999999998 -2 0  1 -2 0  1.2 -2 0  1.4 -2 0  1.6 -2 0  1.8 -2 0  2 -2 0  -2 -1.8 0  -1.8 -1.8 0  -1.6 -1.8 0  -1.4 -1.8 0  -1.2 -1.8 0  -1 -1.8 0  -0.8 -1.8 0  -0.6000000000000001 -1.8 0  -0.3999999999999999 -1.8 0  -0.2 -1.8 0  0 -1.8 0  0.2000000000000002 -1.8 0  0.3999999999999999 -1.8 0  0.6000000000000001 -1.8 0  0.7999999999999998 -1.8 0  1 -1.8 0  1.2 -1.8 0  1.4 -1.8 0  1.6 -1.8 0  1.8 -1.8 0  2 -1.8 0  -2 -1.6 0  -1.8 -1.6 0  -1.6 -1.6 0  -1.4 -1.6 0  -1.2 -1.6 0  -1 -1.6 0  -0.8 -1.6 0  -0.6000000000000001 -1.6 0  -0.3999999999999999 -1.6 0  -0.2 -1.6 0  0 -1.6 0  0.2000000000000002 -1.6 0  0.3999999999999999 -1.6 0  0.6000000000000001 -1.6 0  0.7999999999999998 -1.6 0  1 -1.6 0  1.2 -1.6 0  1.4 -1.6 0  1.6 -1.6 0  1.8 -1.6 0  2 -1.6 0  -2 -1.4 0  -1.8 -1.4 0  -1.6 -1.4 0  -1.4 -1.4 0  -1.2 -1.4 0  -1 -1.4 0  -0.8 -1.4 0  -0.6000000000000001 -1.4 0  -0.3999999999999999 -1.4 0  -0.2 -1.4 0  0 -1.4 0  0.2000000000000002 -1.4 0  0.3999999999999999 -1.4 0  0.6000000000000001 -1.4 0  0.7999999999999998 -1.4 0  1 -1.4 0  1.2 -1.4 0  1.4 -1.4 0  1.6 -1.4 0  1.8 -1.4 0  2 -1.4 0  -2 -1.2 0  -1.8 -1.2 0  -1.6 -1.2 0  -1.4 -1.2 0  -1.2 -1.2 0  -1 -1.2 0  -0.8 -1.2 0  -0.6000000000000001 -1.2 0  -0.3999999999999999 -1.2 0  -0.2 -1.2 0  0 -1.2 0  0.2000000000000002 -1.2 0  0.3999999999999999 -1.2 0  0.6000000000000001 -1.2 0  0.7999999999999998 -1.2 0  1 -1.2 0  1.2 -1.2 0  1.4 -1.2 0  1.6 -1.2 0  1.8 -1.2 0  2 -1.2 0  -2 -1 0  -1.8 -1 0  -1.6 -1 0  -1.4 -1 0  -1.2 -1 0  -1 -1 0  -0.8 -1 0  -0.6000000000000001 -1 0  -0.3999999999999999 -1 0  -0.2 -1 0  0 -1 0  0.2000000000000002 -1 0  0.3999999999999999 -1 0  0.6000000000000001 -1 0  0.7999999999999998 -1 0  1 -1 0  1.2 -1 0  1.4 -1 0  1.6 -1 0  1.8 -1 0  2 -1 0  -2 -0.8 0  -1.8 -0.8 0  -1.6 -0.8 0  -1.4 -0.8 0  -1.2 -0.8 0  -1 -0.8 0  -0.8 -0.8 0  -0.6000000000000001 -0.8 0  -0.3999999999999999 -0.8 0  -0.2 -0.8 0  0 -0.8 0  0.2000000000000002 -0.8 0  0.3999999999999999 -0.8 0  0.6000000000000001 -0.8 0  0.7999999999999998 -0.8 0  1 -0.8 0  1.2 -0.8 0  1.4 -0.8 0  1.6 -0.8 0  1.8 -0.8 0  2 -0.8 0  -2 -0.6000000000000001 0  -1.8 -0.6000000000000001 0  -1.6 -0.6000000000000001 0  -1.4 -0.6000000000000001 0  -1.2 -0.6000000000000001 0  -1 -0.6000000000000001 0  -0.8 -0.6000000000000001 0  -0.6000000000000001 -0.6000000000000001 0  -0.3999999999999999 -0.6000000000000001 0  -0.2 -0.6000000000000001 0  0 -0.6000000000000001 0  0.2000000000000002 -0.6000000000000001 0  0.3999999999999999 -0.6000000000000001 0  0.6000000000000001 -0.6000000000000001 0  0.7999999999999998 -0.6000000000000001 0  1 -0.6000000000000001 0  1.2 -0.6000000000000001 0  1.4 -0.6000000000000001 0  1.6 -0.6000000000000001 0  1.8 -0.6000000000000001 0  2 -0.6000000000000001 0  -2 -0.3999999999999999 0  -1.8 -0.3999999999999999 0  -1.6 -0.3999999999999999 0  -1.4 -0.3999999999999999 0  -1.2 -0.3999999999999999 0  -1 -0.3999999999999999 0  -0.8 -0.3999999999999999 0  -0.6000000000000001 -0.3999999999999999 0  -0.3999999999999999 -0.3999999999999999 0  -0.2 -0.3999999999999999 0  0 -0.3999999999999999 0  0.2000000000000002 -0.3999999999999999 0  0.3999999999999999 -0.3999999999999999 0  0.6000000000000001 -0.3999999999999999 0  0.7999999999999998 -0.3999999999999999 0  1 -0.3999999999999999 0  1.2 -0.3999999999999999 0  1.4 -0.3999999999999999 0  1.6 -0.3999999999999999 0  1.8 -0.3999999999999999 0  2 -0.3999999999999999 0  -2 -0.2 0  -1.8 -0.2 0  -1.6 -0.2 0  -1.4 -0.2 0  -1.2 -0.2 0  -1 -0.2 0  -0.8 -0.2 0  -0.6000000000000001 -0.2 0  -0.3999999999999999 -0.2 0  -0.2 -0.2 0  0 -0.2 0  0.2000000000000002 -0.2 0  0.3999999999999999 -0.2 0  0.6000000000000001 -0.2 0  0.7999999999999998 -0.2 0  1 -0.2 0  1.2 -0.2 0  1.4 -0.2 0  1.6 -0.2 0  1.8 -0.2 0  2 -0.2 0  -2 0 0  -1.8 0 0  -1.6 0 0  -1.4 0 0  -1.2 0 0  -1 0 0  -0.8 0 0  -0.6000000000000001 0 0  -0.3999999999999999 0 0  -0.2 0 0  0 0 0  0.2000000000000002 0 0  0.3999999999999999 0 0  0.6000000000000001 0 0  0.7999999999999998 0 0  1 0 0  1.2 0 0  1.4 0 0  1.6 0 0  1.8 0 0  2 0 0  -2 0.2000000000000002 0  -1.8 0.2000000000000002 0  -1.6 0.2000000000000002 0  -1.4 0.2000000000000002 0  -1.2 0.2000000000000002 0  -1 0.2000000000000002 0  -0.8 0.2000000000000002 0  -0.6000000000000001 0.2000000000000002 0  -0.3999999999999999 0.2000000000000002 0  -0.2 0.2000000000000002 0  0 0.2000000000000002 0  0.2000000000000002 0.2000000000000002 0  0.3999999999999999 0.2000000000000002 0  0.6000000000000001 0.2000000000000002 0  0.7999999999999998 0.2000000000000002 0  1 0.2000000000000002 0  1.2 0.2000000000000002 0  1.4 0.2000000000000002 0  1.6 0.2000000000000002 0  1.8 0.2000000000000002 0  2 0.2000000000000002 0  -2 0.3999999999999999 0  -1.8 0.3999999999999999 0  -1.6 0.3999999999999999 0  -1.4 0.3999999999999999 0  -1.2 0.3999999999999999 0  -1 0.3999999999999999 0  -0.8 0.3999999999999999 0  -0.6000000000000001 0.3999999999999999 0  -0.3999999999999999 0.3999999999999999 0  -0.2 0.3999999999999999 0  0 0.3999999999999999 0  0.2000000000000002 0.3999999999999999 0  0.3999999999999999 0.3999999999999999 0  0.6000000000000001 0.3999999999999999 0  0.7999999999999998 0.3999999999999999 0  1 0.3999999999999999 0  1.2 0.3999999999999999 0  1.4 0.3999999999999999 0  1.6 0.3999999999999999 0  1.8 0.3999999999999999 0  2 0.3999999999999999 0  -2 0.6000000000000001 0  -1.8 0.6000000000000001 0  -1.6 0.6000000000000001 0  -1.4 0.6000000000000001 0  -1.2 0.6000000000000001 0  -1 0.6000000000000001 0  -0.8 0.6000000000000001 0  -0.6000000000000001 0.6000000000000001 0  -0.3999999999999999 0.6000000000000001 0  -0.2 0.6000000000000001 0  0 0.6000000000000001 0  0.2000000000000002 0.6000000000000001 0  0.3999999999999999 0.6000000000000001 0  0.6000000000000001 0.6000000000000001 0  0.7999999999999998 0.6000000000000001 0  1 0.6000000000000001 0  1.2 0.6000000000000001 0  1.4 0.6000000000000001 0  1.6 0.6000000000000001 0  1.8 0.6000000000000001 0  2 0.6000000000000001 0  -2 0.7999999999999998 0  -1.8 0.7999999999999998 0  -1.6 0.7999999999999998 0  -1.4 0.7999999999999998 0  -1.2 0.7999999999999998 0  -1 0.7999999999999998 0  -0.8 0.7999999999999998 0  -0.6000000000000001 0.7999999999999998 0  -0.3999999999999999 0.7999999999999998 0  -0.2 0.7999999999999998 0  0 0.7999999999999998 0  0.2000000000000002 0.7999999999999998 0  0.3999999999999999 0.7999999999999998 0  0.6000000000000001 0.7999999999999998 0  0.7999999999999998 0.7999999999999998 0  1 0.7999999999999998 0  1.2 0.7999999999999998 0  1.4 0.7999999999999998 0  1.6 0.7999999999999998 0  1.8 0.7999999999999998 0  2 0.7999999999999998 0  -2 1 0  -1.8 1 0  -1.6 1 0  -1.4 1 0  -1.2 1 0  -1 1 0  -0.8 1 0  -0.6000000000000001 1 0  -0.3999999999999999 1 0  -0.2 1 0  0 1 0  0.2000000000000002 1 0  0.3999999999999999 1 0  0.6000000000000001 1 0  0.7999999999999998 1 0  1 1 0  1.2 1 0  1.4 1 0  1.6 1 0  1.8 1 0  2 1 0  -2 1.2 0  -1.8 1.2 0  -1.6 1.2 0  -1.4 1.2 0  -1.2 1.2 0  -1 1.2 0  -0.8 1.2 0  -0.6000000000000001 1.2 0  -0.3999999999999999 1.2 0  -0.2 1.2 0  0 1.2 0  0.2000000000000002 1.2 0  0.3999999999999999 1.2 0  0.6000000000000001 1.2 0  0.7999999999999998 1.2 0  1 1.2 0  1.2 1.2 0  1.4 1.2 0  1.6 1.2 0  1.8 1.2 0  2 1.2 0  -2 1.4 0  -1.8 1.4 0  -1.6 1.4 0  -1.4 1.4 0  -1.2 1.4 0  -1 1.4 0  -0.8 1.4 0  -0.6000000000000001 1.4 0  -0.3999999999999999 1.4 0  -0.2 1.4 0  0 1.4 0  0.2000000000000002 1.4 0  0.3999999999999999 1.4 0  0.6000000000000001 1.4 0  0.7999999999999998 1.4 0  1 1.4 0  1.2 1.4 0  1.4 1.4 0  1.6 1.4 0  1.8 1.4 0  2 1.4 0  -2 1.6 0  -1.8 1.6 0  -1.6 1.6 0  -1.4 1.6 0  -1.2 1.6 0  -1 1.6 0  -0.8 1.6 0  -0.6000000000000001 1.6 0  -0.3999999999999999 1.6 0  -0.2 1.6 0  0 1.6 0  0.2000000000000002 1.6 0  0.3999999999999999 1.6 0  0.6000000000000001 1.6 0  0.7999999999999998 1.6 0  1 1.6 0  1.2 1.6 0  1.4 1.6 0  1.6 1.6 0  1.8 1.6 0  2 1.6 0  -2 1.8 0  -1.8 1.8 0  -1.6 1.8 0  -1.4 1.8 0  -1.2 1.8 0  -1 1.8 0  -0.8 1.8 0  -0.6000000000000001 1.8 0  -0.3999999999999999 1.8 0  -0.2 1.8 0  0 1.8 0  0.2000000000000002 1.8 0  0.3999999999999999 1.8 0  0.6000000000000001 1.8 0  0.7999999999999998 1.8 0  1 1.8 0  1.2 1.8 0  1.4 1.8 0  1.6 1.8 0  1.8 1.8 0  2 1.8 0  -2 2 0  -1.8 2 0  -1.6 2 0  -1.4 2 0  -1.2 2 0  -1 2 0  -0.8 2 0  -0.6000000000000001 2 0  -0.3999999999999999 2 0  -0.2 2 0  0 2 0  0.2000000000000002 2 0  0.3999999999999999 2 0  0.6000000000000001 2 0  0.7999999999999998 2 0  1 2 0  1.2 2 0  1.4 2 0  1.6 2 0  1.8 2 0  2 2 0  </DataArray>
</Points>
<Cells>
[...]
<PointData  Scalars="f_8"> 
<DataArray  type="Float64"  Name="f_8"  format="ascii">3.9043701292337696e-01  3.8922001390274363e-01  3.8619087724958590e-01  3.8140161803928835e-01  3.7495916396181156e-01  3.6701811130648737e-01  3.5777398220391565e-01  3.4745644996387348e-01  3.3632232539031898e-01  3.2464828456283351e-01  3.1272342393746111e-01  3.0084178411211693e-01  2.8929500868002223e-01  2.7836531192468689e-01  2.6831892811660735e-01  2.5940021432837113e-01  2.5182658741805547e-01  2.4578450678552455e-01  2.4142678703323917e-01  2.3887167081130659e-01  2.3820436728618427e-01  3.8988069383620388e-01  3.8890845899657150e-01  3.8603811525596510e-01  3.8135594844897935e-01  3.7498835173696571e-01  3.6710096312161006e-01  3.5789555465365186e-01  3.4760533063464033e-01  3.3648909668392374e-01  3.2482465626554075e-01  3.1290173099631086e-01  3.0101466126834853e-01  2.8945511142710206e-01  2.7850497229104004e-01  2.6842961971479273e-01  2.5947164877040907e-01  2.5184515576553052e-01  2.4573057869481180e-01  2.4127001894027583e-01  2.3856283040843124e-01  2.3766103469106925e-01  3.8974500002995160e-01  3.8879100065446931e-01  3.8595447624032997e-01  3.8131021145909355e-01  3.7497892468006855e-01  3.6712353311369406e-01  3.5794455978212386e-01  3.4767468020380454e-01  3.3657251862780113e-01  3.2491586387172988e-01  3.1299450356646852e-01  3.0110288393748413e-01  2.8953279668220389e-01  2.7856627946227880e-01  2.6846889557803311e-01  2.5948353487839659e-01  2.5182485549845524e-01  2.4567446911104621e-01  2.4117696755839779e-01  2.3843690678486140e-01  2.3751692429943966e-01  3.8970000272100774e-01  3.8874943372397275e-01  3.8592210998530979e-01  3.8129068796462967e-01  3.7497381826473414e-01  3.6713270541522969e-01  3.5796656380968933e-01  3.4770712492562000e-01  3.3661237297884128e-01  3.2495970498296167e-01  3.1303872210296191e-01  3.0114386081373112e-01  2.8956706512637415e-01  2.7859068649224694e-01  2.6848077797314240e-01  2.5948092614947554e-01  2.5180674024552208e-01  2.4564109493088032e-01  2.4113020226732390e-01  2.3838056888036047e-01  2.3745687342399033e-01  3.8968630003622495e-01  3.8873680380119985e-01  3.8591258656296290e-01  3.8128581584705706e-01  3.7497449653569659e-01  3.6713915191340357e-01  3.5797836184170939e-01  3.4772331894685438e-01  3.3663158982176039e-01  3.2498028590809025e-01  3.1305885727612642e-01  3.0116172196113139e-01  2.8958093457226458e-01  2.7859908191390459e-01  2.6848257213474347e-01  2.5947545944225953e-01  2.5179392065679540e-01  2.4562147454592972e-01  2.4110501125117662e-01  2.3835167791465167e-01  2.3742664802291030e-01  3.8968432868188679e-01  3.8873521106988040e-01  3.8591209872700133e-01  3.8128700716930281e-01  3.7497771619420806e-01  3.6714448543975697e-01  3.5798562576800647e-01  3.4773208342765716e-01  3.3664122264194807e-01  3.2499001137834782e-01  3.1306782424352098e-01  3.0116907602654053e-01  2.8958589033368765e-01  2.7860099150210765e-01  2.6848098640991386e-01  2.5947017797070338e-01  2.5178502605429337e-01  2.4560934615695015e-01  2.4109031284352003e-01  2.3833531483519618e-01  2.3740969216439037e-01  3.8968623405977348e-01  3.8873724374047797e-01  3.8591449559771196e-01  3.8128995011307787e-01  3.7498130262443635e-01  3.6714870994969351e-01  3.5799037425399488e-01  3.4773713942967477e-01  3.3664628442400174e-01  3.2499471752090980e-01  3.1307178513371176e-01  3.0117190849493281e-01  2.8958725270001234e-01  2.7860061638437733e-01  2.6847870878395302e-01  2.5946595613642282e-01  2.5177895340517387e-01  2.4560165203141077e-01  2.4108135136283446e-01  2.3832554161061070e-01  2.3739963014624749e-01  3.8968884075734578e-01  3.8873988470392601e-01  3.8591722775967557e-01  3.8129280964173839e-01  3.7498429358880758e-01  3.6715179698948724e-01  3.5799348008038151e-01  3.4774014737910675e-01  3.3664904573772625e-01  3.2499706257838140e-01  3.1307353754718192e-01  3.0117290077263165e-01  2.8958734209389114e-01  2.7859969954051345e-01  2.6847673389774079e-01  2.5946293147486410e-01  2.5177495129554089e-01  2.4559680773383943e-01  2.4107585664692868e-01  2.3831963333510447e-01  2.3739357466607583e-01  3.8969104870379234e-01  3.8874209505875501e-01  3.8591943833401082e-01  3.8129501055197312e-01  3.7498646312803391e-01  3.6715389904142470e-01  3.5799546344221594e-01  3.4774194713537948e-01  3.3665058660035774e-01  3.2499826390310971e-01  3.1307431957151255e-01  3.0117319150481353e-01  2.8958708422053564e-01  2.7859885671224649e-01  2.6847529579522961e-01  2.5946091714778929e-01  2.5177241039961479e-01  2.4559381945931943e-01  2.4107252632715484e-01  2.3831608693229309e-01  2.3738995153573614e-01  3.8969267717999950e-01  3.8874371690004200e-01  3.8592103656829818e-01  3.8129656547070195e-01  3.7498795089497716e-01  3.6715529092478721e-01  3.5799672582332426e-01  3.4774304235780401e-01  3.3665147462831091e-01  3.2499890466797493e-01  3.1307467580926296e-01  3.0117323183143940e-01  2.8958678616148853e-01  2.7859820939705804e-01  2.6847430204955963e-01  2.5945959476013591e-01  2.5177079240521250e-01  2.4559195336442163e-01  2.4107047228670439e-01  2.3831391498551366e-01  2.3738773808911653e-01  3.8969392494346178e-01  3.8874495618168958e-01  3.8592224878825965e-01  3.8129773095833924e-01  3.7498904839409442e-01  3.6715629741049571e-01  3.5799761670502084e-01  3.4774379209768974e-01  3.3665205775632384e-01  3.2499929712724074e-01  3.1307485652600364e-01  3.0117318437361495e-01  2.8958650033395505e-01  2.7859768261905865e-01  2.6847354037293525e-01  2.5945861341255660e-01  2.5176961577970025e-01  2.4559061442128088e-01  2.4106901138283923e-01  2.3831237819469217e-01  2.3738617512064603e-01  3.8969512950977647e-01  3.8874615179697691e-01  3.8592341725221474e-01  3.8129885296963512e-01  3.7499010306021441e-01  3.6715726207426558e-01  3.5799846715866518e-01  3.4774450321000205e-01  3.3665260449043793e-01  3.2499965588069402e-01  3.1307500668591226e-01  3.0117310995151264e-01  2.8958619152965742e-01  2.7859713716200041e-01  2.6847276450272650e-01  2.5945762238677916e-01  2.5176843383394831e-01  2.4558927415099335e-01  2.4106755256474990e-01  2.3831084611348263e-01  2.3738461850925108e-01  3.8969665824576083e-01  3.8874767203784710e-01  3.8592491266575701e-01  3.8130030443592106e-01  3.7499148731969711e-01  3.6715855102040623e-01  3.5799962791299533e-01  3.4774549902746127e-01  3.3665339644989212e-01  3.2500020522961698e-01  3.1307527763729803e-01  3.0117307268084975e-01  2.8958582509358977e-01  2.7859643205935719e-01  2.6847172462237795e-01  2.5945626613317341e-01  2.5176679428674470e-01  2.4558739819513256e-01  2.4106549901544339e-01  2.3830868294957053e-01  2.3738241940982413e-01  3.8969880401223639e-01  3.8874981602262254e-01  3.8592705204235012e-01  3.8130242846127405e-01  3.7499357337226702e-01  3.6716056224115967e-01  3.5800151277051706e-01  3.4774719290445044e-01  3.3665482512883332e-01  3.2500128996273270e-01  3.1307594133459055e-01  3.0117324664779821e-01  2.8958545569939198e-01  2.7859548671673368e-01  2.6847019650833925e-01  2.5945417717333252e-01  2.5176419605938605e-01  2.4558437057935439e-01  2.4106214660128145e-01  2.3830512943350773e-01  2.3737880039736400e-01  3.8970155064111739e-01  3.8875259043238125e-01  3.8592990662782312e-01  3.8130539398470570e-01  3.7499664815488476e-01  3.6716370550776822e-01  3.5800464284694394e-01  3.4775019037712973e-01  3.3665754055581537e-01  3.2500355531629621e-01  3.1307758406826436e-01  3.0117410510803827e-01  2.8958539452991139e-01  2.7859441091696274e-01  2.6846806289678393e-01  2.5945100216866906e-01  2.5176005893050807e-01  2.4557941163710936e-01  2.4105656021281807e-01  2.3829915222509437e-01  2.3737269553769988e-01  3.8970402162845497e-01  3.8875518401342285e-01  3.8593284757923929e-01  3.8130884921495345e-01  3.7500069879813519e-01  3.6716833035683905e-01  3.5800971419443556e-01  3.4775548175137827e-01  3.3666274474029501e-01  3.2500831038603584e-01  3.1308150485782482e-01  3.0117681742792551e-01  2.8958656947654893e-01  2.7859379671013518e-01  2.6846551179652078e-01  2.5944649017607763e-01  2.5175369620776977e-01  2.4557144197218544e-01  2.4104734851406664e-01  2.3828916006883449e-01  2.3736244625274522e-01  3.8970327378235192e-01  3.8875482572314923e-01  3.8593357987199278e-01  3.8131121333184709e-01  3.7500500772962841e-01  3.6717463482354995e-01  3.5801780093443059e-01  3.4776489858434873e-01  3.3667284585574092e-01  3.2501831555831301e-01  3.1309056707245136e-01  3.0118409425855647e-01  2.8959129423170016e-01  2.7859534574466421e-01  2.6846346439832558e-01  2.5944067709618157e-01  2.5174423228767323e-01  2.4555873766443062e-01  2.4103209485305177e-01  2.3827228262433389e-01  2.3734502692910062e-01  3.8969159824736732e-01  3.8874428421847618e-01  3.8592615268337321e-01  3.8130837506164866e-01  3.7500758586155758e-01  3.6718278429669410e-01  3.5803105595059548e-01  3.4778226979388560e-01  3.3669294091255797e-01  3.2503946940880180e-01  3.1311097434332430e-01  3.0120194000197775e-01  2.8960488155253056e-01  2.7860321980948766e-01  2.6846453208609511e-01  2.5943431989404037e-01  2.5173040651670975e-01  2.4553805018516006e-01  2.4100583379289589e-01  2.3824237249156999e-01  2.3731387074977958e-01  3.8964939321346681e-01  3.8870570162855517e-01  3.8589680176583174e-01  3.8129173806606609e-01  3.7500511681754067e-01  3.6719426811966099e-01  3.5805500453832795e-01  3.4781627611496363e-01  3.3673397352048501e-01  3.2508411322118491e-01  3.1315563067640112e-01  3.0124300000407389e-01  2.8963888695307760e-01  2.7862702516672055e-01  2.6847548391489906e-01  2.5943046955186511e-01  2.5171077340823989e-01  2.4550294474054848e-01  2.4095722488565263e-01  2.3818421847086518e-01  2.3725217964874212e-01  3.8951716540771453e-01  3.8859212850714170e-01  3.8581675458569209e-01  3.8124905484749427e-01  3.7499817696971754e-01  3.6721881949744223e-01  3.5810557273199600e-01  3.4788685500171640e-01  3.3681835926487574e-01  3.2517606537920846e-01  3.1324895073444325e-01  3.0133157048519366e-01  2.8971669275859430e-01  2.7868817337064095e-01  2.6851424592467860e-01  2.5944139328693916e-01  2.5168896280154390e-01  2.4544470027654078e-01  2.4086142215147119e-01  2.3805514698285166e-01  2.3710521115460809e-01  3.8896735710000718e-01  3.8828334465675840e-01  3.8566469254207225e-01  3.8120300831494913e-01  3.7502651621133809e-01  3.6730072673901437e-01  3.5822633923356800e-01  3.4803521203381926e-01  3.3698497035654101e-01  3.2535267547072089e-01  3.1342789384111219e-01  3.0150545001058976e-01  2.8987810472423992e-01  2.7882936058954028e-01  2.6862655581073558e-01  2.5951435792865601e-01  2.5170870872206524e-01  2.4539118947797292e-01  2.4070365616205391e-01  2.3774280619801244e-01  2.3655402739111697e-01  </DataArray> 
</PointData> 
</Piece>
</UnstructuredGrid>
</VTKFile>