<?xml version="1.0"?>
<VTKFile type="UnstructuredGrid"  version="0.1"  >
<UnstructuredGrid>
<Piece  NumberOfPoints="441" NumberOfCells="800">
<Points>
<DataArray  type="Float64"  NumberOfComponents="3"  format="ascii">-2 -2 0  -1.8 -2 0  -1.6 -2 0  -1.4 -2 0  -1.2 -2 0  -1 -2 0  -0.8 -2 0  -0.6000000000000001 -2 0  -0.3999999999999999 -2 0  -0.2 -2 0  0 -2 0  0.2000000000000002 -2 0  0.3999999999999999 -2 0  0.6000000000000001 -2 0  0.7999999999999998 -2 0  1 -2 0  1.2 -2 0  1.4 -2 0  1.6 -2 0  1.8 -2 0  2 -2 0  -2 -1.8 0  -1.8 -1.8 0  -1.6 -1.8 0  -1.4 -1.8 0  -1.2 -1.8 0  -1 -1.8 0  -0.8 -1.8 0  -0.6000000000000001 -1.8 0  -0.3999999999999999 -1.8 0  -0.2 -1.8 0  0 -1.8 0  0.2000000000000002 -1.8 0  0.3999999999999999 -1.8 0  0.6000000000000001 -1.8 0  0.7999999999999998 -1.8 0  1 -1.8 0  1.2 -1.8 0  1.4 -1.8 0  1.6 -1.8 0  1.8 -1.8 0  2 -1.8 0  -2 -1.6 0  -1.8 -1.6 0  -1.6 -1.6 0  -1.4 -1.6 0  -1.2 -1.6 0  -1 -1.6 0  -0.8 -1.6 0  -0.6000000000000001 -1.6 0  -0.3999999999999999 -1.6 0  -0.2 -1.6 0  0 -1.6 0  0.2000000000000002 -1.6 0  0.3999999999999999 -1.6 0  0.6000000000000001 -1.6 0  0.7999999999999998 -1.6 0  1 -1.6 0  1.2 -1.6 0  1.4 -1.6 0  1.6 -1.6 0  1.8 -1.6 0  2 -1.6 0  -2 -1.4 0  -1.8 -1.4 0  -1.6 -1.4 0  -1.4 -1.4 0  -1.2 -1.4 0  -1 -1.4 0  -0.8 -1.4 0  -0.6000000000000001 -1.4 0  -0.3999999999999999 -1.4 0  -0.2 -1.4 0  0 -1.4 0  0.2000000000000002 -1.4 0  0.3999999999999999 -1.4 0  0.6000000000000001 -1.4 0  0.7999999999999998 -1.4 0  1 -1.4 0  1.2 -1.4 0  1.4 -1.4 0  1.6 -1.4 0  1.8 -1.4 0  2 -1.4 0  -2 -1.2 0  -1.8 -1.2 0  -1.6 -1.2 0  -1.4 -1.2 0  -1.2 -1.2 0  -1 -1.2 0  -0.8 -1.2 0  -0.6000000000000001 -1.2 0  -0.3999999999999999 -1.2 0  -0.2 -1.2 0  0 -1.2 0  0.2000000000000002 -1.2 0  0.3999999999999999 -1.2 0  0.6000000000000001 -1.2 0  0.7999999999999998 -1.2 0  1 -1.2 0  1.2 -1.2 0  1.4 -1.2 0  1.6 -1.2 0  1.8 -1.2 0  2 -1.2 0  -2 -1 0  -1.8 -1 0  -1.6 -1 0  -1.4 -1 0  -1.2 -1 0  -1 -1 0  -0.8 -1 0  -0.6000000000000001 -1 0  -0.3999999999999999 -1 0  -0.2 -1 0  0 -1 0  0.2000000000000002 -1 0  0.3999999999999999 -1 0  0.6000000000000001 -1 0  0.7999999999999998 -1 0  1 -1 0  1.2 -1 0  1.4 -1 0  1.6 -1 0  1.8 -1 0  2 -1 0  -2 -0.8 0  -1.8 -0.8 0  -1.6 -0.8 0  -1.4 -0.8 0  -1.2 -0.8 0  -1 -0.8 0  -0.8 -0.8 0  -0.6000000000000001 -0.8 0  -0.3999999999999999 -0.8 0  -0.2 -0.8 0  0 -0.8 0  0.2000000000000002 -0.8 0  0.3999999999999999 -0.8 0  0.6000000000000001 -0.8 0  0.7999999999999998 -0.8 0  1 -0.8 0  1.2 -0.8 0  1.4 -0.8 0  1.6 -0.8 0  1.8 -0.8 0  2 -0.8 0  -2 -0.6000000000000001 0  -1.8 -0.6000000000000001 0  -1.6 -0.6000000000000001 0  -1.4 -0.6000000000000001 0  -1.2 -0.6000000000000001 0  -1 -0.6000000000000001 0  -0.8 -0.6000000000000001 0  -0.6000000000000001 -0.6000000000000001 0  -0.3999999999999999 -0.6000000000000001 0  -0.2 -0.6000000000000001 0  0 -0.6000000000000001 0  0.2000000000000002 -0.6000000000000001 0  0.3999999999999999 -0.6000000000000001 0  0.6000000000000001 -0.6000000000000001 0  0.7999999999999998 -0.6000000000000001 0  1 -0.6000000000000001 0  1.2 -0.6000000000000001 0  1.4 -0.6000000000000001 0  1.6 -0.6000000000000001 0  1.8 -0.6000000000000001 0  2 -0.6000000000000001 0  -2 -0.3999999999999999 0  -1.8 -0.3999999999999999 0  -1.6 -0.3999999999999999 0  -1.4 -0.3999999999999999 0  -1.2 -0.3999999999999999 0  -1 -0.3999999999999999 0  -0.8 -0.3999999999999999 0  -0.6000000000000001 -0.3999999999999999 0  -0.3999999999999999 -0.3999999999999999 0  -0.2 -0.3999999999999999 0  0 -0.3999999999999999 0  0.2000000000000002 -0.3999999999999999 0  0.3999999999999999 -0.3999999999999999 0  0.6000000000000001 -0.3999999999999999 0  0.7999999999999998 -0.3999999999999999 0  1 -0.3999999999999999 0  1.2 -0.3999999999999999 0  1.4 -0.3999999999999999 0  1.6 -0.3999999999999999 0  1.8 -0.3999999999999999 0  2 -0.3999999999999999 0  -2 -0.2 0  -1.8 -0.2 0  -1.6 -0.2 0  -1.4 -0.2 0  -1.2 -0.2 0  -1 -0.2 0  -0.8 -0.2 0  -0.6000000000000001 -0.2 0  -0.3999999999999999 -0.2 0  -0.2 -0.2 0  0 -0.2 0  0.2000000000000002 -0.2 0  0.3999999999999999 -0.2 0  0.6000000000000001 -0.2 0  0.7999999999999998 -0.2 0  1 -0.2 0  1.2 -0.2 0  1.4 -0.2 0  1.6 -0.2 0  1.8 -0.2 0  2 -0.2 0  -2 0 0  -1.8 0 0  -1.6 0 0  -1.4 0 0  -1.2 0 0  -1 0 0  -0.8 0 0  -0.6000000000000001 0 0  -0.3999999999999999 0 0  -0.2 0 0  0 0 0  0.2000000000000002 0 0  0.3999999999999999 0 0  0.6000000000000001 0 0  0.7999999999999998 0 0  1 0 0  1.2 0 0  1.4 0 0  1.6 0 0  1.8 0 0  2 0 0  -2 0.2000000000000002 0  -1.8 0.2000000000000002 0  -1.6 0.2000000000000002 0  -1.4 0.2000000000000002 0  -1.2 0.2000000000000002 0  -1 0.2000000000000002 0  -0.8 0.2000000000000002 0  -0.6000000000000001 0.2000000000000002 0  -0.3999999999999999 0.2000000000000002 0  -0.2 0.2000000000000002 0  0 0.2000000000000002 0  0.2000000000000002 0.2000000000000002 0  0.3999999999999999 0.2000000000000002 0  0.6000000000000001 0.2000000000000002 0  0.7999999999999998 0.2000000000000002 0  1 0.2000000000000002 0  1.2 0.2000000000000002 0  1.4 0.2000000000000002 0  1.6 0.2000000000000002 0  1.8 0.2000000000000002 0  2 0.2000000000000002 0  -2 0.3999999999999999 0  -1.8 0.3999999999999999 0  -1.6 0.3999999999999999 0  -1.4 0.3999999999999999 0  -1.2 0.3999999999999999 0  -1 0.3999999999999999 0  -0.8 0.3999999999999999 0  -0.6000000000000001 0.3999999999999999 0  -0.3999999999999999 0.3999999999999999 0  -0.2 0.3999999999999999 0  0 0.3999999999999999 0  0.2000000000000002 0.3999999999999999 0  0.3999999999999999 0.3999999999999999 0  0.6000000000000001 0.3999999999999999 0  0.7999999999999998 0.3999999999999999 0  1 0.3999999999999999 0  1.2 0.3999999999999999 0  1.4 0.3999999999999999 0  1.6 0.3999999999999999 0  1.8 0.3999999999999999 0  2 0.3999999999999999 0  -2 0.6000000000000001 0  -1.8 0.6000000000000001 0  -1.6 0.6000000000000001 0  -1.4 0.6000000000000001 0  -1.2 0.6000000000000001 0  -1 0.6000000000000001 0  -0.8 0.6000000000000001 0  -0.6000000000000001 0.6000000000000001 0  -0.3999999999999999 0.6000000000000001 0  -0.2 0.6000000000000001 0  0 0.6000000000000001 0  0.2000000000000002 0.6000000000000001 0  0.3999999999999999 0.6000000000000001 0  0.6000000000000001 0.6000000000000001 0  0.7999999999999998 0.6000000000000001 0  1 0.6000000000000001 0  1.2 0.6000000000000001 0  1.4 0.6000000000000001 0  1.6 0.6000000000000001 0  1.8 0.6000000000000001 0  2 0.6000000000000001 0  -2 0.7999999999999998 0  -1.8 0.7999999999999998 0  -1.6 0.7999999999999998 0  -1.4 0.7999999999999998 0  -1.2 0.7999999999999998 0  -1 0.7999999999999998 0  -0.8 0.7999999999999998 0  -0.6000000000000001 0.7999999999999998 0  -0.3999999999999999 0.7999999999999998 0  -0.2 0.7999999999999998 0  0 0.7999999999999998 0  0.2000000000000002 0.7999999999999998 0  0.3999999999999999 0.7999999999999998 0  0.6000000000000001 0.7999999999999998 0  0.7999999999999998 0.7999999999999998 0  1 0.7999999999999998 0  1.2 0.7999999999999998 0  1.4 0.7999999999999998 0  1.6 0.7999999999999998 0  1.8 0.7999999999999998 0  2 0.7999999999999998 0  -2 1 0  -1.8 1 0  -1.6 1 0  -1.4 1 0  -1.2 1 0  -1 1 0  -0.8 1 0  -0.6000000000000001 1 0  -0.3999999999999999 1 0  -0.2 1 0  0 1 0  0.2000000000000002 1 0  0.3999999999999999 1 0  0.6000000000000001 1 0  0.7999999999999998 1 0  1 1 0  1.2 1 0  1.4 1 0  1.6 1 0  1.8 1 0  2 1 0  -2 1.2 0  -1.8 1.2 0  -1.6 1.2 0  -1.4 1.2 0  -1.2 1.2 0  -1 1.2 0  -0.8 1.2 0  -0.6000000000000001 1.2 0  -0.3999999999999999 1.2 0  -0.2 1.2 0  0 1.2 0  0.2000000000000002 1.2 0  0.3999999999999999 1.2 0  0.6000000000000001 1.2 0  0.7999999999999998 1.2 0  1 1.2 0  1.2 1.2 0  1.4 1.2 0  1.6 1.2 0  1.8 1.2 0  2 1.2 0  -2 1.4 0  -1.8 1.4 0  -1.6 1.4 0  -1.4 1.4 0  -1.2 1.4 0  -1 1.4 0  -0.8 1.4 0  -0.6000000000000001 1.4 0  -0.3999999999999999 1.4 0  -0.2 1.4 0  0 1.4 0  0.2000000000000002 1.4 0  0.3999999999999999 1.4 0  0.6000000000000001 1.4 0  0.7999999999999998 1.4 0  1 1.4 0  1.2 1.4 0  1.4 1.4 0  1.6 1.4 0  1.8 1.4 0  2 1.4 0  -2 1.6 0  -1.8 1.6 0  -1.6 1.6 0  -1.4 1.6 0  -1.2 1.6 0  -1 1.6 0  -0.8 1.6 0  -0.6000000000000001 1.6 0  -0.3999999999999999 1.6 0  -0.2 1.6 0  0 1.6 0  0.2000000000000002 1.6 0  0.3999999999999999 1.6 0  0.6000000000000001 1.6 0  0.7999999999999998 1.6 0  1 1.6 0  1.2 1.6 0  1.4 1.6 0  1.6 1.6 0  1.8 1.6 0  2 1.6 0  -2 1.8 0  -1.8 1.8 0  -1.6 1.8 0  -1.4 1.8 0  -1.2 1.8 0  -1 1.8 0  -0.8 1.8 0  -0.6000000000000001 1.8 0  -0.3999999999999999 1.8 0  -0.2 1.8 0  0 1.8 0  0.2000000000000002 1.8 0  0.3999999999999999 1.8 0  0.6000000000000001 1.8 0  0.7999999999999998 1.8 0  1 1.8 0  1.2 1.8 0  1.4 1.8 0  1.6 1.8 0  1.8 1.8 0  2 1.8 0  -2 2 0  -1.8 2 0  -1.6 2 0  -1.4 2 0  -1.2 2 0  -1 2 0  -0.8 2 0  -0.6000000000000001 2 0  -0.3999999999999999 2 0  -0.2 2 0  0 2 0  0.2000000000000002 2 0  0.3999999999999999 2 0  0.6000000000000001 2 0  0.7999999999999998 2 0  1 2 0  1.2 2 0  1.4 2 0  1.6 2 0  1.8 2 0  2 2 0  </DataArray>
</Points>
<Cells>
[...]
<PointData  Scalars="f_8"> 
<DataArray  type="Float64"  Name="f_8"  format="ascii">3.7455731690597703e-02  3.7457198109719071e-02  3.7457810266142789e-02  3.7458128513606914e-02  3.7458318657399424e-02  3.7458441336993060e-02  3.7458524033349060e-02  3.7458581630038686e-02  3.7458623365802399e-02  3.7458655657793834e-02  3.7458683481155601e-02  3.7458711190548291e-02  3.7458743139939181e-02  3.7458784301297357e-02  3.7458841082100403e-02  3.7458922694931396e-02  3.7459043956188230e-02  3.7459232177549498e-02  3.7459547592649425e-02  3.7460155277843590e-02  3.7461616583548171e-02  3.7466357811167632e-02  3.7466696723171738e-02  3.7467024079883803e-02  3.7467256484688946e-02  3.7467414378418086e-02  3.7467522013218263e-02  3.7467596364802493e-02  3.7467648700293794e-02  3.7467686752699625e-02  3.7467716180855884e-02  3.7467741494275314e-02  3.7467766688567453e-02  3.7467795758502030e-02  3.7467833210368555e-02  3.7467884695210237e-02  3.7467957930196687e-02  3.7468064156657752e-02  3.7468220329479586e-02  3.7468450775687480e-02  3.7468776421671901e-02  3.7469115101326653e-02  3.7493901370642777e-02  3.7493939230649455e-02  3.7494062507776781e-02  3.7494184800307084e-02  3.7494283115685548e-02  3.7494356488494786e-02  3.7494409627818991e-02  3.7494447820810711e-02  3.7494475685964021e-02  3.7494497083023333e-02  3.7494515325447175e-02  3.7494533452054751e-02  3.7494554502530579e-02  3.7494581793263197e-02  3.7494619190540687e-02  3.7494671327987415e-02  3.7494743530702958e-02  3.7494840604720137e-02  3.7494961816304968e-02  3.7495084634606615e-02  3.7495123253368186e-02  3.7537882186520474e-02  3.7537813435988776e-02  3.7537819147724416e-02  3.7537853226400894e-02  3.7537891628906306e-02  3.7537924900254677e-02  3.7537950659947944e-02  3.7537969437588768e-02  3.7537982773580510e-02  3.7537992458644011e-02  3.7538000283925919e-02  3.7538008004207229e-02  3.7538017377415453e-02  3.7538030205164476e-02  3.7538048299560381e-02  3.7538073241132702e-02  3.7538105633192605e-02  3.7538143226542003e-02  3.7538176781426381e-02  3.7538182545529084e-02  3.7538114671200259e-02  3.7597049717188427e-02  3.7596928259238986e-02  3.7596864172317945e-02  3.7596834705499668e-02  3.7596822753894379e-02  3.7596818213662057e-02  3.7596815938419237e-02  3.7596813662387915e-02  3.7596810623929097e-02  3.7596806789225695e-02  3.7596802450147328e-02  3.7596798021585762e-02  3.7596793923270699e-02  3.7596790462713144e-02  3.7596787636115361e-02  3.7596784732666588e-02  3.7596779567385108e-02  3.7596767113743559e-02  3.7596737426166531e-02  3.7596673566368921e-02  3.7596552884121191e-02  3.7669707447421930e-02  3.7669553021374647e-02  3.7669444584149316e-02  3.7669370454425678e-02  3.7669319408016468e-02  3.7669282978040661e-02  3.7669255490952715e-02  3.7669233360121963e-02  3.7669214355097409e-02  3.7669197052862466e-02  3.7669180469524499e-02  3.7669163813974893e-02  3.7669146300543653e-02  3.7669126962518951e-02  3.7669104408331787e-02  3.7669076457034441e-02  3.7669039593280204e-02  3.7668988236931968e-02  3.7668914027468525e-02  3.7668805834524796e-02  3.7668652018852389e-02  3.7753831780519290e-02  3.7753654840340441e-02  3.7753517140932884e-02  3.7753412143037277e-02  3.7753332388588010e-02  3.7753271189469757e-02  3.7753223195370146e-02  3.7753184337195440e-02  3.7753151543152827e-02  3.7753122428272001e-02  3.7753095026307811e-02  3.7753067569037811e-02  3.7753038293227896e-02  3.7753005248120648e-02  3.7752966076125404e-02  3.7752917746350291e-02  3.7752856244626043e-02  3.7752776286632476e-02  3.7752671252029850e-02  3.7752533735512746e-02  3.7752357216151902e-02  3.7847147269638531e-02  3.7846955411219581e-02  3.7846798873059945e-02  3.7846673566929945e-02  3.7846574239832807e-02  3.7846495550698689e-02  3.7846432654308079e-02  3.7846381390070655e-02  3.7846338244409881e-02  3.7846300213322970e-02  3.7846264634215025e-02  3.7846229015301942e-02  3.7846190868567380e-02  3.7846147542979838e-02  3.7846096054509303e-02  3.7846032918392253e-02  3.7845954010974514e-02  3.7845854528931154e-02  3.7845729171364376e-02  3.7845572713997196e-02  3.7845381076613907e-02  3.7947193588724289e-02  3.7946993392879616e-02  3.7946826272630622e-02  3.7946689332085774e-02  3.7946578543686396e-02  3.7946489440447630e-02  3.7946417604595210e-02  3.7946358925198181e-02  3.7946309677674470e-02  3.7946266491004833e-02  3.7946226253690457e-02  3.7946185990549379e-02  3.7946142728484497e-02  3.7946093362365145e-02  3.7946034532060836e-02  3.7945962528444357e-02  3.7945873259943787e-02  3.7945762330084905e-02  3.7945625291532524e-02  3.7945458130024964e-02  3.7945257952590336e-02  3.8051391803527811e-02  3.8051189398756464e-02  3.8051018872079193e-02  3.8050877878492213e-02  3.8050763005276600e-02  3.8050670268042285e-02  3.8050595521033966e-02  3.8050534723609052e-02  3.8050484067470552e-02  3.8050439996794937e-02  3.8050399157417633e-02  3.8050358305174309e-02  3.8050314196088564e-02  3.8050263476608732e-02  3.8050202592073784e-02  3.8050127736029289e-02  3.8050034870375581e-02  3.8049919852370703e-02  3.8049778700525748e-02  3.8049608004013601e-02  3.8049405417763256e-02  3.8157110858637024e-02  3.8156912080474829e-02  3.8156744722458315e-02  3.8156606604772103e-02  3.8156494509553530e-02  3.8156404616267021e-02  3.8156332882716595e-02  3.8156275309186423e-02  3.8156228077573531e-02  3.8156187587128097e-02  3.8156150417488738e-02  3.8156113247748140e-02  3.8156072755263885e-02  3.8156025514473779e-02  3.8155967916035510e-02  3.8155896130183962e-02  3.8155806143309608e-02  3.8155693898702457e-02  3.8155555563096209e-02  3.8155387910337249e-02  3.8155188758421665e-02  3.8261733448636467e-02  3.8261543864610399e-02  3.8261385882358494e-02  3.8261257175994573e-02  3.8261154365564952e-02  3.8261073506213057e-02  3.8261010493234181e-02  3.8260961325639900e-02  3.8260922232210372e-02  3.8260889691306595e-02  3.8260860379952459e-02  3.8260831081936834e-02  3.8260798577530869e-02  3.8260759533118305e-02  3.8260710409174788e-02  3.8260647409615628e-02  3.8260566502959906e-02  3.8260463551628834e-02  3.8260334581062642e-02  3.8260176191726329e-02  3.8259986053575286e-02  3.8362719947898555e-02  3.8362544852210995e-02  3.8362402248100558e-02  3.8362289296220403e-02  3.8362202054622416e-02  3.8362136150013486e-02  3.8362087253700154e-02  3.8362051334390204e-02  3.8362024737417337e-02  3.8362004153282073e-02  3.8361986524832858e-02  3.8361968924512838e-02  3.8361948419795532e-02  3.8361921938342432e-02  3.8361886144604923e-02  3.8361837346618730e-02  3.8361771465588161e-02  3.8361684119263856e-02  3.8361570883552229e-02  3.8361427781507994e-02  3.8361251966740194e-02  3.8457668947279394e-02  3.8457513391303932e-02  3.8457392183596346e-02  3.8457301382023759e-02  3.8457235922847832e-02  3.8457190645307032e-02  3.8457160853658183e-02  3.8457142504333484e-02  3.8457132174984275e-02  3.8457126934585195e-02  3.8457124180628827e-02  3.8457121471183367e-02  3.8457116358466124e-02  3.8457106221834431e-02  3.8457088098267263e-02  3.8457058517641529e-02  3.8457013372091287e-02  3.8456947888321234e-02  3.8456856826028993e-02  3.8456735061724034e-02  3.8456578639586458e-02  3.8544372932369821e-02  3.8544241883049876e-02  3.8544148541858968e-02  3.8544086737111113e-02  3.8544049409638723e-02  3.8544030191494404e-02  3.8544023952653883e-02  3.8544026763875784e-02  3.8544035640135386e-02  3.8544048251748592e-02  3.8544062669300126e-02  3.8544077148904531e-02  3.8544089940780159e-02  3.8544099096887670e-02  3.8544102253411865e-02  3.8544096371353254e-02  3.8544077443021206e-02  3.8544040234221692e-02  3.8543978257091410e-02  3.8543884348844468e-02  3.8543752305368537e-02  3.8620867607965327e-02  3.8620766461130690e-02  3.8620708858513438e-02  3.8620684039823688e-02  3.8620681589169155e-02  3.8620693562278277e-02  3.8620714560953083e-02  3.8620741114968729e-02  3.8620771024416821e-02  3.8620802856079148e-02  3.8620835597481487e-02  3.8620868418366532e-02  3.8620900483556840e-02  3.8620930764656065e-02  3.8620957797778133e-02  3.8620979330640362e-02  3.8620991808473629e-02  3.8620989704839674e-02  3.8620964901818398e-02  3.8620906799725914e-02  3.8620804550559149e-02  3.8685473110932150e-02  3.8685409287850220e-02  3.8685398820695049e-02  3.8685421257840504e-02  3.8685461022060851e-02  3.8685508734975720e-02  3.8685559475448598e-02  3.8685610957095398e-02  3.8685662300193428e-02  3.8685713325641906e-02  3.8685764178027479e-02  3.8685815125131959e-02  3.8685866431726668e-02  3.8685918232354531e-02  3.8685970327244280e-02  3.8686021797357549e-02  3.8686070282542021e-02  3.8686110726307565e-02  3.8686133519857911e-02  3.8686122763201908e-02  3.8686057755703641e-02  3.8736824137001712e-02  3.8736812481316302e-02  3.8736868800466395e-02  3.8736952550713820e-02  3.8737042134631305e-02  3.8737128715028775e-02  3.8737209763364783e-02  3.8737285426216655e-02  3.8737356838062120e-02  3.8737425425036109e-02  3.8737492658225320e-02  3.8737559996717096e-02  3.8737628898878274e-02  3.8737700833279452e-02  3.8737777220129076e-02  3.8737859179457081e-02  3.8737946820236208e-02  3.8738037515106349e-02  3.8738122182401739e-02  3.8738178709928871e-02  3.8738165858792459e-02  3.8773880904187159e-02  3.8773964180770150e-02  3.8774124919127982e-02  3.8774288285101211e-02  3.8774433415598074e-02  3.8774558620593702e-02  3.8774667386966798e-02  3.8774763918149033e-02  3.8774851985672099e-02  3.8774934797250395e-02  3.8775015141917279e-02  3.8775095595929121e-02  3.8775178736525244e-02  3.8775267356211729e-02  3.8775364670205099e-02  3.8775474463593210e-02  3.8775600958500772e-02  3.8775747645832276e-02  3.8775912725282621e-02  3.8776074754291887e-02  3.8776157150083285e-02  3.8795890851695984e-02  3.8796226293446527e-02  3.8796560016024266e-02  3.8796818337762898e-02  3.8797016202337414e-02  3.8797172888608365e-02  3.8797302135301234e-02  3.8797413164403209e-02  3.8797512371705804e-02  3.8797604487324444e-02  3.8797693316966912e-02  3.8797782253346520e-02  3.8797874690470829e-02  3.8797974438846715e-02  3.8798086240124624e-02  3.8798216515789866e-02  3.8798374544068377e-02  3.8798574184847903e-02  3.8798834947692595e-02  3.8799171904157069e-02  3.8799508448130203e-02  3.8802170493601795e-02  3.8803425765112420e-02  3.8803994651517813e-02  3.8804325134031009e-02  3.8804550864667636e-02  3.8804721076285922e-02  3.8804858222146209e-02  3.8804974544124383e-02  3.8805077701971481e-02  3.8805173064849222e-02  3.8805264831708798e-02  3.8805356698328318e-02  3.8805452360924628e-02  3.8805556020347819e-02  3.8805673051034717e-02  3.8805811125263746e-02  3.8805982512570565e-02  3.8806209731434817e-02  3.8806542225602765e-02  3.8807114696559737e-02  3.8808381709769246e-02  </DataArray> 
</PointData> 
</Piece>
</UnstructuredGrid>
</VTKFile>