<?xml version="1.0"?>
<VTKFile type="UnstructuredGrid"  version="0.1"  >
<UnstructuredGrid>
<Piece  NumberOfPoints="441" NumberOfCells="800">
<Points>
<DataArray  type="Float64"  NumberOfComponents="3"  format="ascii">-2 -2 0  -1.8 -2 0  -1.6 -2 0  -1.4 -2 0  -1.2 -2 0  -1 -2 0  -0.8 -2 0  -0.6000000000000001 -2 0  -0.3999999999999999 -2 0  -0.2 -2 0  0 -2 0  0.2000000000000002 -2 0  0.3999999999999999 -2 0  0.6000000000000001 -2 0  0.7999999999999998 -2 0  1 -2 0  1.2 -2 0  1.4 -2 0  1.6 -2 0  1.8 -2 0  2 -2 0  -2 -1.8 0  -1.8 -1.8 0  -1.6 -1.8 0  -1.4 -1.8 0  -1.2 -1.8 0  -1 -1.8 0  -0.8 -1.8 0  -0.6000000000000001 -1.8 0  -0.3999999999999999 -1.8 0  -0.2 -1.8 0  0 -1.8 0  0.2000000000000002 -1.8 0  0.3999999999999999 -1.8 0  0.6000000000000001 -1.8 0  0.7999999999999998 -1.8 0  1 -1.8 0  1.2 -1.8 0  1.4 -1.8 0  1.6 -1.8 0  1.8 -1.8 0  2 -1.8 0  -2 -1.6 0  -1.8 -1.6 0  -1.6 -1.6 0  -1.4 -1.6 0  -1.2 -1.6 0  -1 -1.6 0  -0.8 -1.6 0  -0.6000000000000001 -1.6 0  -0.3999999999999999 -1.6 0  -0.2 -1.6 0  0 -1.6 0  0.2000000000000002 -1.6 0  0.3999999999999999 -1.6 0  0.6000000000000001 -1.6 0  0.7999999999999998 -1.6 0  1 -1.6 0  1.2 -1.6 0  1.4 -1.6 0  1.6 -1.6 0  1.8 -1.6 0  2 -1.6 0  -2 -1.4 0  -1.8 -1.4 0  -1.6 -1.4 0  -1.4 -1.4 0  -1.2 -1.4 0  -1 -1.4 0  -0.8 -1.4 0  -0.6000000000000001 -1.4 0  -0.3999999999999999 -1.4 0  -0.2 -1.4 0  0 -1.4 0  0.2000000000000002 -1.4 0  0.3999999999999999 -1.4 0  0.6000000000000001 -1.4 0  0.7999999999999998 -1.4 0  1 -1.4 0  1.2 -1.4 0  1.4 -1.4 0  1.6 -1.4 0  1.8 -1.4 0  2 -1.4 0  -2 -1.2 0  -1.8 -1.2 0  -1.6 -1.2 0  -1.4 -1.2 0  -1.2 -1.2 0  -1 -1.2 0  -0.8 -1.2 0  -0.6000000000000001 -1.2 0  -0.3999999999999999 -1.2 0  -0.2 -1.2 0  0 -1.2 0  0.2000000000000002 -1.2 0  0.3999999999999999 -1.2 0  0.6000000000000001 -1.2 0  0.7999999999999998 -1.2 0  1 -1.2 0  1.2 -1.2 0  1.4 -1.2 0  1.6 -1.2 0  1.8 -1.2 0  2 -1.2 0  -2 -1 0  -1.8 -1 0  -1.6 -1 0  -1.4 -1 0  -1.2 -1 0  -1 -1 0  -0.8 -1 0  -0.6000000000000001 -1 0  -0.3999999999999999 -1 0  -0.2 -1 0  0 -1 0  0.2000000000000002 -1 0  0.3999999999999999 -1 0  0.6000000000000001 -1 0  0.7999999999999998 -1 0  1 -1 0  1.2 -1 0  1.4 -1 0  1.6 -1 0  1.8 -1 0  2 -1 0  -2 -0.8 0  -1.8 -0.8 0  -1.6 -0.8 0  -1.4 -0.8 0  -1.2 -0.8 0  -1 -0.8 0  -0.8 -0.8 0  -0.6000000000000001 -0.8 0  -0.3999999999999999 -0.8 0  -0.2 -0.8 0  0 -0.8 0  0.2000000000000002 -0.8 0  0.3999999999999999 -0.8 0  0.6000000000000001 -0.8 0  0.7999999999999998 -0.8 0  1 -0.8 0  1.2 -0.8 0  1.4 -0.8 0  1.6 -0.8 0  1.8 -0.8 0  2 -0.8 0  -2 -0.6000000000000001 0  -1.8 -0.6000000000000001 0  -1.6 -0.6000000000000001 0  -1.4 -0.6000000000000001 0  -1.2 -0.6000000000000001 0  -1 -0.6000000000000001 0  -0.8 -0.6000000000000001 0  -0.6000000000000001 -0.6000000000000001 0  -0.3999999999999999 -0.6000000000000001 0  -0.2 -0.6000000000000001 0  0 -0.6000000000000001 0  0.2000000000000002 -0.6000000000000001 0  0.3999999999999999 -0.6000000000000001 0  0.6000000000000001 -0.6000000000000001 0  0.7999999999999998 -0.6000000000000001 0  1 -0.6000000000000001 0  1.2 -0.6000000000000001 0  1.4 -0.6000000000000001 0  1.6 -0.6000000000000001 0  1.8 -0.6000000000000001 0  2 -0.6000000000000001 0  -2 -0.3999999999999999 0  -1.8 -0.3999999999999999 0  -1.6 -0.3999999999999999 0  -1.4 -0.3999999999999999 0  -1.2 -0.3999999999999999 0  -1 -0.3999999999999999 0  -0.8 -0.3999999999999999 0  -0.6000000000000001 -0.3999999999999999 0  -0.3999999999999999 -0.3999999999999999 0  -0.2 -0.3999999999999999 0  0 -0.3999999999999999 0  0.2000000000000002 -0.3999999999999999 0  0.3999999999999999 -0.3999999999999999 0  0.6000000000000001 -0.3999999999999999 0  0.7999999999999998 -0.3999999999999999 0  1 -0.3999999999999999 0  1.2 -0.3999999999999999 0  1.4 -0.3999999999999999 0  1.6 -0.3999999999999999 0  1.8 -0.3999999999999999 0  2 -0.3999999999999999 0  -2 -0.2 0  -1.8 -0.2 0  -1.6 -0.2 0  -1.4 -0.2 0  -1.2 -0.2 0  -1 -0.2 0  -0.8 -0.2 0  -0.6000000000000001 -0.2 0  -0.3999999999999999 -0.2 0  -0.2 -0.2 0  0 -0.2 0  0.2000000000000002 -0.2 0  0.3999999999999999 -0.2 0  0.6000000000000001 -0.2 0  0.7999999999999998 -0.2 0  1 -0.2 0  1.2 -0.2 0  1.4 -0.2 0  1.6 -0.2 0  1.8 -0.2 0  2 -0.2 0  -2 0 0  -1.8 0 0  -1.6 0 0  -1.4 0 0  -1.2 0 0  -1 0 0  -0.8 0 0  -0.6000000000000001 0 0  -0.3999999999999999 0 0  -0.2 0 0  0 0 0  0.2000000000000002 0 0  0.3999999999999999 0 0  0.6000000000000001 0 0  0.7999999999999998 0 0  1 0 0  1.2 0 0  1.4 0 0  1.6 0 0  1.8 0 0  2 0 0  -2 0.2000000000000002 0  -1.8 0.2000000000000002 0  -1.6 0.2000000000000002 0  -1.4 0.2000000000000002 0  -1.2 0.2000000000000002 0  -1 0.2000000000000002 0  -0.8 0.2000000000000002 0  -0.6000000000000001 0.2000000000000002 0  -0.3999999999999999 0.2000000000000002 0  -0.2 0.2000000000000002 0  0 0.2000000000000002 0  0.2000000000000002 0.2000000000000002 0  0.3999999999999999 0.2000000000000002 0  0.6000000000000001 0.2000000000000002 0  0.7999999999999998 0.2000000000000002 0  1 0.2000000000000002 0  1.2 0.2000000000000002 0  1.4 0.2000000000000002 0  1.6 0.2000000000000002 0  1.8 0.2000000000000002 0  2 0.2000000000000002 0  -2 0.3999999999999999 0  -1.8 0.3999999999999999 0  -1.6 0.3999999999999999 0  -1.4 0.3999999999999999 0  -1.2 0.3999999999999999 0  -1 0.3999999999999999 0  -0.8 0.3999999999999999 0  -0.6000000000000001 0.3999999999999999 0  -0.3999999999999999 0.3999999999999999 0  -0.2 0.3999999999999999 0  0 0.3999999999999999 0  0.2000000000000002 0.3999999999999999 0  0.3999999999999999 0.3999999999999999 0  0.6000000000000001 0.3999999999999999 0  0.7999999999999998 0.3999999999999999 0  1 0.3999999999999999 0  1.2 0.3999999999999999 0  1.4 0.3999999999999999 0  1.6 0.3999999999999999 0  1.8 0.3999999999999999 0  2 0.3999999999999999 0  -2 0.6000000000000001 0  -1.8 0.6000000000000001 0  -1.6 0.6000000000000001 0  -1.4 0.6000000000000001 0  -1.2 0.6000000000000001 0  -1 0.6000000000000001 0  -0.8 0.6000000000000001 0  -0.6000000000000001 0.6000000000000001 0  -0.3999999999999999 0.6000000000000001 0  -0.2 0.6000000000000001 0  0 0.6000000000000001 0  0.2000000000000002 0.6000000000000001 0  0.3999999999999999 0.6000000000000001 0  0.6000000000000001 0.6000000000000001 0  0.7999999999999998 0.6000000000000001 0  1 0.6000000000000001 0  1.2 0.6000000000000001 0  1.4 0.6000000000000001 0  1.6 0.6000000000000001 0  1.8 0.6000000000000001 0  2 0.6000000000000001 0  -2 0.7999999999999998 0  -1.8 0.7999999999999998 0  -1.6 0.7999999999999998 0  -1.4 0.7999999999999998 0  -1.2 0.7999999999999998 0  -1 0.7999999999999998 0  -0.8 0.7999999999999998 0  -0.6000000000000001 0.7999999999999998 0  -0.3999999999999999 0.7999999999999998 0  -0.2 0.7999999999999998 0  0 0.7999999999999998 0  0.2000000000000002 0.7999999999999998 0  0.3999999999999999 0.7999999999999998 0  0.6000000000000001 0.7999999999999998 0  0.7999999999999998 0.7999999999999998 0  1 0.7999999999999998 0  1.2 0.7999999999999998 0  1.4 0.7999999999999998 0  1.6 0.7999999999999998 0  1.8 0.7999999999999998 0  2 0.7999999999999998 0  -2 1 0  -1.8 1 0  -1.6 1 0  -1.4 1 0  -1.2 1 0  -1 1 0  -0.8 1 0  -0.6000000000000001 1 0  -0.3999999999999999 1 0  -0.2 1 0  0 1 0  0.2000000000000002 1 0  0.3999999999999999 1 0  0.6000000000000001 1 0  0.7999999999999998 1 0  1 1 0  1.2 1 0  1.4 1 0  1.6 1 0  1.8 1 0  2 1 0  -2 1.2 0  -1.8 1.2 0  -1.6 1.2 0  -1.4 1.2 0  -1.2 1.2 0  -1 1.2 0  -0.8 1.2 0  -0.6000000000000001 1.2 0  -0.3999999999999999 1.2 0  -0.2 1.2 0  0 1.2 0  0.2000000000000002 1.2 0  0.3999999999999999 1.2 0  0.6000000000000001 1.2 0  0.7999999999999998 1.2 0  1 1.2 0  1.2 1.2 0  1.4 1.2 0  1.6 1.2 0  1.8 1.2 0  2 1.2 0  -2 1.4 0  -1.8 1.4 0  -1.6 1.4 0  -1.4 1.4 0  -1.2 1.4 0  -1 1.4 0  -0.8 1.4 0  -0.6000000000000001 1.4 0  -0.3999999999999999 1.4 0  -0.2 1.4 0  0 1.4 0  0.2000000000000002 1.4 0  0.3999999999999999 1.4 0  0.6000000000000001 1.4 0  0.7999999999999998 1.4 0  1 1.4 0  1.2 1.4 0  1.4 1.4 0  1.6 1.4 0  1.8 1.4 0  2 1.4 0  -2 1.6 0  -1.8 1.6 0  -1.6 1.6 0  -1.4 1.6 0  -1.2 1.6 0  -1 1.6 0  -0.8 1.6 0  -0.6000000000000001 1.6 0  -0.3999999999999999 1.6 0  -0.2 1.6 0  0 1.6 0  0.2000000000000002 1.6 0  0.3999999999999999 1.6 0  0.6000000000000001 1.6 0  0.7999999999999998 1.6 0  1 1.6 0  1.2 1.6 0  1.4 1.6 0  1.6 1.6 0  1.8 1.6 0  2 1.6 0  -2 1.8 0  -1.8 1.8 0  -1.6 1.8 0  -1.4 1.8 0  -1.2 1.8 0  -1 1.8 0  -0.8 1.8 0  -0.6000000000000001 1.8 0  -0.3999999999999999 1.8 0  -0.2 1.8 0  0 1.8 0  0.2000000000000002 1.8 0  0.3999999999999999 1.8 0  0.6000000000000001 1.8 0  0.7999999999999998 1.8 0  1 1.8 0  1.2 1.8 0  1.4 1.8 0  1.6 1.8 0  1.8 1.8 0  2 1.8 0  -2 2 0  -1.8 2 0  -1.6 2 0  -1.4 2 0  -1.2 2 0  -1 2 0  -0.8 2 0  -0.6000000000000001 2 0  -0.3999999999999999 2 0  -0.2 2 0  0 2 0  0.2000000000000002 2 0  0.3999999999999999 2 0  0.6000000000000001 2 0  0.7999999999999998 2 0  1 2 0  1.2 2 0  1.4 2 0  1.6 2 0  1.8 2 0  2 2 0  </DataArray>
</Points>
<Cells>
[...]
<PointData  Scalars="f_8"> 
<DataArray  type="Float64"  Name="f_8"  format="ascii">3.2218552902383230e-01  3.2204672706531023e-01  3.2170113234828768e-01  3.2115436667954234e-01  3.2041818132006411e-01  3.1950968388340850e-01  3.1845063546589825e-01  3.1726674980427311e-01  3.1598696302991169e-01  3.1464266425896059e-01  3.1326689024864846e-01  3.1189349528173166e-01  3.1055631238901277e-01  3.0928832523360467e-01  3.0812087231128216e-01  3.0708290730819082e-01  3.0620034237111088e-01  3.0549550597248243e-01  3.0498675611647968e-01  3.0468830650383283e-01  3.0461035441085904e-01  3.2212167062387637e-01  3.2201076941506745e-01  3.2168325307358359e-01  3.2114867903631966e-01  3.2042103615933210e-01  3.1951870133947813e-01  3.1846415185274846e-01  3.1728350163512131e-01  3.1600590671209960e-01  3.1466287305139568e-01  3.1328749408388806e-01  3.1191364211482286e-01  3.1057513618988303e-01  3.0930490772395897e-01  3.0813418371412155e-01  3.0709170512442180e-01  3.0620299445547239e-01  3.0548968070845561e-01  3.0496888040792636e-01  3.0465261735918975e-01  3.0454723649578558e-01  3.2210547058522121e-01  3.2199665269580691e-01  3.2167300329628951e-01  3.2114277679886771e-01  3.2041932219850972e-01  3.1952071076386163e-01  3.1846927864268515e-01  3.1729107723745592e-01  3.1601523632291528e-01  3.1467325184103162e-01  3.1329821442684835e-01  3.1192399716980745e-01  3.1058442249596913e-01  3.0931242867379793e-01  3.0813925647744739e-01  3.0709367613337740e-01  3.0620127402286290e-01  3.0548381805004604e-01  3.0495872074020552e-01  3.0463862119792406e-01  3.0453111329583404e-01  3.2209948838173458e-01  3.2199107037551322e-01  3.2166849647274876e-01  3.2113977999554627e-01  3.2041803580080491e-01  3.1952114063052445e-01  3.1847128068217950e-01  3.1729439718492336e-01  3.1601954261073412e-01  3.1467816237652002e-01  3.1330331896286634e-01  3.1192887704885186e-01  3.1058866944332580e-01  3.0931566425167983e-01  3.0814115385770302e-01  3.0709398594512344e-01  3.0619985596354560e-01  3.0548067918276034e-01  3.0495405876433074e-01  3.0463286399054978e-01  3.0452492955699023e-01  3.2209713170516430e-01  3.2198884466276989e-01  3.2166665231489872e-01  3.2113851216346789e-01  3.2041746510648456e-01  3.1952130933548506e-01  3.1847215705295467e-01  3.1729588551051657e-01  3.1602149614692987e-01  3.1468039767475992e-01  3.1330563074422429e-01  3.1193105322244952e-01  3.1059050610376054e-01  3.0931698056910206e-01  3.0814180671573915e-01  3.0709388397218401e-01  3.0619897219887582e-01  3.0547906096035771e-01  3.0495183245080060e-01  3.0463023107601328e-01  3.0452214976848246e-01  3.2209629437464571e-01  3.2198805699595690e-01  3.2166601196565908e-01  3.2113809905158247e-01  3.2041733273873785e-01  3.1952148000096559e-01  3.1847262075808425e-01  3.1729660209581001e-01  3.1602239988785225e-01  3.1468140368296488e-01  3.1330664256079727e-01  3.1193197107671738e-01  3.1059123537108524e-01  3.0931743998591582e-01  3.0814193589605710e-01  3.0709364971970798e-01  3.0619837303367858e-01  3.0547812920431955e-01  3.0495063319080717e-01  3.0462885743325652e-01  3.0452071427067423e-01  3.2209613539256798e-01  3.2198791623908446e-01  3.2166592556392715e-01  3.2113809651853631e-01  3.2041743334730499e-01  3.1952169042192607e-01  3.1847293413342198e-01  3.1729699853370252e-01  3.1602284823199467e-01  3.1468186432329359e-01  3.1330707100408339e-01  3.1193232197146037e-01  3.1059146667155846e-01  3.0931751693869070e-01  3.0814183453639687e-01  3.0709335957640949e-01  3.0619789876473130e-01  3.0547749093139803e-01  3.0494986538013530e-01  3.0462800629567854e-01  3.0451983383021652e-01  3.2209628884037178e-01  3.2198807468108659e-01  3.2166609890427661e-01  3.2113829211678702e-01  3.2041765458370752e-01  3.1952193573277127e-01  3.1847319661814044e-01  3.1729726616724885e-01  3.1602310465306227e-01  3.1468209011644649e-01  3.1330724535396143e-01  3.1193242453981701e-01  3.1059147953217664e-01  3.0931742640031357e-01  3.0814163268926942e-01  3.0709304541403076e-01  3.0619747875965830e-01  3.0547697898322729e-01  3.0494928210531935e-01  3.0462737769112658e-01  3.0451918941120681e-01  3.2209658998527452e-01  3.2198837508831957e-01  3.2166639706644407e-01  3.2113858563431080e-01  3.2041793967049315e-01  3.1952220690867145e-01  3.1847344663422400e-01  3.1729748618337439e-01  3.1602328465994423e-01  3.1468221956910175e-01  3.1330731396221595e-01  3.1193242314577491e-01  3.1059140099500726e-01  3.0931726640576773e-01  3.0814139040510369e-01  3.0709272392286152e-01  3.0619708521730282e-01  3.0547652447257251e-01  3.0494878118193836e-01  3.0462684764532577e-01  3.0451864929927047e-01  3.2209696534961613e-01  3.2198874721520238e-01  3.2166675948971651e-01  3.2113893168258056e-01  3.2041826237249199e-01  3.1952249897549762e-01  3.1847370053746960e-01  3.1729769433676980e-01  3.1602343969988178e-01  3.1468231471754543e-01  3.1330734344520245e-01  3.1193238263289963e-01  3.1059128802061986e-01  3.0931708073147607e-01  3.0814113428572576e-01  3.0709240224403989e-01  3.0619670548220751e-01  3.0547609662681097e-01  3.0494831727905347e-01  3.0462636136895627e-01  3.0451815537087396e-01  3.2209738431488255e-01  3.2198916189112614e-01  3.2166716135698781e-01  3.2113931227294035e-01  3.2041861332647936e-01  3.1952281213829664e-01  3.1847396810127632e-01  3.1729790903182048e-01  3.1602359502944999e-01  3.1468240522555491e-01  3.1330736499931872e-01  3.1193233270164927e-01  3.1059116592069902e-01  3.0931688782122568e-01  3.0814087408284757e-01  3.0709208044989394e-01  3.0619632990115209e-01  3.0547567697653782e-01  3.0494786489610354e-01  3.0462588882184921e-01  3.0451767600078300e-01  3.2209783459110219e-01  3.2198960761857470e-01  3.2166759352116331e-01  3.2113972191953666e-01  3.2041899163179133e-01  3.1952315051849622e-01  3.1847425836828452e-01  3.1729814359712677e-01  3.1602376715038077e-01  3.1468250928189789e-01  3.1330739678255248e-01  3.1193228969489822e-01  3.1059104754536149e-01  3.0931669562627262e-01  3.0814061185512165e-01  3.0709175422821960e-01  3.0619594788336801e-01  3.0547524931618325e-01  3.0494740339378229e-01  3.0462540652452408e-01  3.0451718672965189e-01  3.2209830561471531e-01  3.2199007465449897e-01  3.2166804858425974e-01  3.2114015683844854e-01  3.2041939799424662e-01  3.1952351969676424e-01  3.1847458164131992e-01  3.1729841237424999e-01  3.1602397328906773e-01  3.1468264548064978e-01  3.1330745701999058e-01  3.1193226967903320e-01  3.1059094513304442e-01  3.0931651117247266e-01  3.0814034845498633e-01  3.0709141782166638e-01  3.0619554720179171e-01  3.0547479566302205e-01  3.0494691026420290e-01  3.0462488908316665e-01  3.0451666117788678e-01  3.2209877126479547e-01  3.2199053843391168e-01  3.2166850635297678e-01  3.2114060356245228e-01  3.2041982732551710e-01  3.1952392374908034e-01  3.1847495100203710e-01  3.1729873636528044e-01  3.1602424046325905e-01  3.1468284431526289e-01  3.1330757674888976e-01  3.1193230119073106e-01  3.1059088185357392e-01  3.0931634985052947e-01  3.0814008977196145e-01  3.0709106676092168e-01  3.0619511312937470e-01  3.0547429209513832e-01  3.0494635432376244e-01  3.0462430067648250e-01  3.0451606195027664e-01  3.2209916336395267e-01  3.2199093428623321e-01  3.2166891199882475e-01  3.2114102240283482e-01  3.2042025881476321e-01  3.1952436257822070e-01  3.1847538686069382e-01  3.1729915430239142e-01  3.1602462180607371e-01  3.1468316805618968e-01  3.1330782127239509e-01  3.1193244618733607e-01  3.1059091025420299e-01  3.0931624961128446e-01  3.0813985534658583e-01  3.0709070011615969e-01  3.0619462418794308e-01  3.0547369853291034e-01  3.0494568070196287e-01  3.0462357695416870e-01  3.0451532149175670e-01  3.2209932020412219e-01  3.2199110864862895e-01  3.2166913479888454e-01  3.2114131759732667e-01  3.2042064001518711e-01  3.1952483096254458e-01  3.1847593052017542e-01  3.1729974898471214e-01  3.1602523289199730e-01  3.1468375352904299e-01  3.1330833539590075e-01  3.1193284358561840e-01  3.1059115007882454e-01  3.0931629947838979e-01  3.0813969473104491e-01  3.0709032290140020e-01  3.0619404009630591e-01  3.0547293321189217e-01  3.0494477432907907e-01  3.0462258135874104e-01  3.0451429597862295e-01  3.2209887262666237e-01  3.2199071204677149e-01  3.2166888003420685e-01  3.2114127690309774e-01  3.2042085887619787e-01  3.1952532386458038e-01  3.1847668035366261e-01  3.1730070951915296e-01  3.1602633362963428e-01  3.1468490627296525e-01  3.1330944194454213e-01  3.1193380404284288e-01  3.1059187132114841e-01  3.0931670333717337e-01  3.0813972542485790e-01  3.0708995319600590e-01  3.0619327558970028e-01  3.0547181406821539e-01  3.0494337377282743e-01  3.0462100038171369e-01  3.0451265413688161e-01  3.2209696574036123e-01  3.2198894283909668e-01  3.2166748943750934e-01  3.2114044823089305e-01  3.2042070137163997e-01  3.1952586921458320e-01  3.1847788782247966e-01  3.1730247618647850e-01  3.1602850735755067e-01  3.1468729997554618e-01  3.1331184839455489e-01  3.1193601085651612e-01  3.1059367597390414e-01  3.0931792812385173e-01  3.0814023220093517e-01  3.0708965750288209e-01  3.0619215932977201e-01  3.0546993519361360e-01  3.0494087045927692e-01  3.0461808600899454e-01  3.0450959868231392e-01  3.2209146728971644e-01  3.2198386435452286e-01  3.2166348540342016e-01  3.2113793255303674e-01  3.2041985839067383e-01  3.1952669363033054e-01  3.1848022832485734e-01  3.1730607407193617e-01  3.1603302840797232e-01  3.1469236051644384e-01  3.1331703721737980e-01  3.1194090875951147e-01  3.1059787457885057e-01  3.0932104958220630e-01  3.0814195146841350e-01  3.0708972896843756e-01  3.0619044949164514e-01  3.0546646220355927e-01  3.0493584843404586e-01  3.0461196434475318e-01  3.0450306866182530e-01  3.2207577118903219e-01  3.2197029349500939e-01  3.2165374154220439e-01  3.2113246743655810e-01  3.2041850831149982e-01  3.1952899929907180e-01  3.1848559235192186e-01  3.1731383626295617e-01  3.1604250058262240e-01  3.1470284213917238e-01  3.1332782241820367e-01  3.1195128985883946e-01  3.1060714469076245e-01  3.0932850615884022e-01  3.0814690345544177e-01  3.0709151292467629e-01  3.0618846574973158e-01  3.0546025335158195e-01  3.0492526375732992e-01  3.0459749413867326e-01  3.0448650776584685e-01  3.2201273874509234e-01  3.2193471828546544e-01  3.2163599467544635e-01  3.2112677647094801e-01  3.2042129315032497e-01  3.1953792286898430e-01  3.1849901811453274e-01  3.1733051814829366e-01  3.1606140595357651e-01  3.1472305052248301e-01  3.1334846623548140e-01  3.1197151614778035e-01  3.1062608306824929e-01  3.0934523011395476e-01  3.0816037007599578e-01  3.0710045970159777e-01  3.0619123003271997e-01  3.0545445599337140e-01  3.0490725540981511e-01  3.0456138595707632e-01  3.0442247172184139e-01  </DataArray> 
</PointData> 
</Piece>
</UnstructuredGrid>
</VTKFile>