<?xml version="1.0"?>
<VTKFile type="UnstructuredGrid"  version="0.1"  >
<UnstructuredGrid>
<Piece  NumberOfPoints="441" NumberOfCells="800">
<Points>
<DataArray  type="Float64"  NumberOfComponents="3"  format="ascii">-2 -2 0  -1.8 -2 0  -1.6 -2 0  -1.4 -2 0  -1.2 -2 0  -1 -2 0  -0.8 -2 0  -0.6000000000000001 -2 0  -0.3999999999999999 -2 0  -0.2 -2 0  0 -2 0  0.2000000000000002 -2 0  0.3999999999999999 -2 0  0.6000000000000001 -2 0  0.7999999999999998 -2 0  1 -2 0  1.2 -2 0  1.4 -2 0  1.6 -2 0  1.8 -2 0  2 -2 0  -2 -1.8 0  -1.8 -1.8 0  -1.6 -1.8 0  -1.4 -1.8 0  -1.2 -1.8 0  -1 -1.8 0  -0.8 -1.8 0  -0.6000000000000001 -1.8 0  -0.3999999999999999 -1.8 0  -0.2 -1.8 0  0 -1.8 0  0.2000000000000002 -1.8 0  0.3999999999999999 -1.8 0  0.6000000000000001 -1.8 0  0.7999999999999998 -1.8 0  1 -1.8 0  1.2 -1.8 0  1.4 -1.8 0  1.6 -1.8 0  1.8 -1.8 0  2 -1.8 0  -2 -1.6 0  -1.8 -1.6 0  -1.6 -1.6 0  -1.4 -1.6 0  -1.2 -1.6 0  -1 -1.6 0  -0.8 -1.6 0  -0.6000000000000001 -1.6 0  -0.3999999999999999 -1.6 0  -0.2 -1.6 0  0 -1.6 0  0.2000000000000002 -1.6 0  0.3999999999999999 -1.6 0  0.6000000000000001 -1.6 0  0.7999999999999998 -1.6 0  1 -1.6 0  1.2 -1.6 0  1.4 -1.6 0  1.6 -1.6 0  1.8 -1.6 0  2 -1.6 0  -2 -1.4 0  -1.8 -1.4 0  -1.6 -1.4 0  -1.4 -1.4 0  -1.2 -1.4 0  -1 -1.4 0  -0.8 -1.4 0  -0.6000000000000001 -1.4 0  -0.3999999999999999 -1.4 0  -0.2 -1.4 0  0 -1.4 0  0.2000000000000002 -1.4 0  0.3999999999999999 -1.4 0  0.6000000000000001 -1.4 0  0.7999999999999998 -1.4 0  1 -1.4 0  1.2 -1.4 0  1.4 -1.4 0  1.6 -1.4 0  1.8 -1.4 0  2 -1.4 0  -2 -1.2 0  -1.8 -1.2 0  -1.6 -1.2 0  -1.4 -1.2 0  -1.2 -1.2 0  -1 -1.2 0  -0.8 -1.2 0  -0.6000000000000001 -1.2 0  -0.3999999999999999 -1.2 0  -0.2 -1.2 0  0 -1.2 0  0.2000000000000002 -1.2 0  0.3999999999999999 -1.2 0  0.6000000000000001 -1.2 0  0.7999999999999998 -1.2 0  1 -1.2 0  1.2 -1.2 0  1.4 -1.2 0  1.6 -1.2 0  1.8 -1.2 0  2 -1.2 0  -2 -1 0  -1.8 -1 0  -1.6 -1 0  -1.4 -1 0  -1.2 -1 0  -1 -1 0  -0.8 -1 0  -0.6000000000000001 -1 0  -0.3999999999999999 -1 0  -0.2 -1 0  0 -1 0  0.2000000000000002 -1 0  0.3999999999999999 -1 0  0.6000000000000001 -1 0  0.7999999999999998 -1 0  1 -1 0  1.2 -1 0  1.4 -1 0  1.6 -1 0  1.8 -1 0  2 -1 0  -2 -0.8 0  -1.8 -0.8 0  -1.6 -0.8 0  -1.4 -0.8 0  -1.2 -0.8 0  -1 -0.8 0  -0.8 -0.8 0  -0.6000000000000001 -0.8 0  -0.3999999999999999 -0.8 0  -0.2 -0.8 0  0 -0.8 0  0.2000000000000002 -0.8 0  0.3999999999999999 -0.8 0  0.6000000000000001 -0.8 0  0.7999999999999998 -0.8 0  1 -0.8 0  1.2 -0.8 0  1.4 -0.8 0  1.6 -0.8 0  1.8 -0.8 0  2 -0.8 0  -2 -0.6000000000000001 0  -1.8 -0.6000000000000001 0  -1.6 -0.6000000000000001 0  -1.4 -0.6000000000000001 0  -1.2 -0.6000000000000001 0  -1 -0.6000000000000001 0  -0.8 -0.6000000000000001 0  -0.6000000000000001 -0.6000000000000001 0  -0.3999999999999999 -0.6000000000000001 0  -0.2 -0.6000000000000001 0  0 -0.6000000000000001 0  0.2000000000000002 -0.6000000000000001 0  0.3999999999999999 -0.6000000000000001 0  0.6000000000000001 -0.6000000000000001 0  0.7999999999999998 -0.6000000000000001 0  1 -0.6000000000000001 0  1.2 -0.6000000000000001 0  1.4 -0.6000000000000001 0  1.6 -0.6000000000000001 0  1.8 -0.6000000000000001 0  2 -0.6000000000000001 0  -2 -0.3999999999999999 0  -1.8 -0.3999999999999999 0  -1.6 -0.3999999999999999 0  -1.4 -0.3999999999999999 0  -1.2 -0.3999999999999999 0  -1 -0.3999999999999999 0  -0.8 -0.3999999999999999 0  -0.6000000000000001 -0.3999999999999999 0  -0.3999999999999999 -0.3999999999999999 0  -0.2 -0.3999999999999999 0  0 -0.3999999999999999 0  0.2000000000000002 -0.3999999999999999 0  0.3999999999999999 -0.3999999999999999 0  0.6000000000000001 -0.3999999999999999 0  0.7999999999999998 -0.3999999999999999 0  1 -0.3999999999999999 0  1.2 -0.3999999999999999 0  1.4 -0.3999999999999999 0  1.6 -0.3999999999999999 0  1.8 -0.3999999999999999 0  2 -0.3999999999999999 0  -2 -0.2 0  -1.8 -0.2 0  -1.6 -0.2 0  -1.4 -0.2 0  -1.2 -0.2 0  -1 -0.2 0  -0.8 -0.2 0  -0.6000000000000001 -0.2 0  -0.3999999999999999 -0.2 0  -0.2 -0.2 0  0 -0.2 0  0.2000000000000002 -0.2 0  0.3999999999999999 -0.2 0  0.6000000000000001 -0.2 0  0.7999999999999998 -0.2 0  1 -0.2 0  1.2 -0.2 0  1.4 -0.2 0  1.6 -0.2 0  1.8 -0.2 0  2 -0.2 0  -2 0 0  -1.8 0 0  -1.6 0 0  -1.4 0 0  -1.2 0 0  -1 0 0  -0.8 0 0  -0.6000000000000001 0 0  -0.3999999999999999 0 0  -0.2 0 0  0 0 0  0.2000000000000002 0 0  0.3999999999999999 0 0  0.6000000000000001 0 0  0.7999999999999998 0 0  1 0 0  1.2 0 0  1.4 0 0  1.6 0 0  1.8 0 0  2 0 0  -2 0.2000000000000002 0  -1.8 0.2000000000000002 0  -1.6 0.2000000000000002 0  -1.4 0.2000000000000002 0  -1.2 0.2000000000000002 0  -1 0.2000000000000002 0  -0.8 0.2000000000000002 0  -0.6000000000000001 0.2000000000000002 0  -0.3999999999999999 0.2000000000000002 0  -0.2 0.2000000000000002 0  0 0.2000000000000002 0  0.2000000000000002 0.2000000000000002 0  0.3999999999999999 0.2000000000000002 0  0.6000000000000001 0.2000000000000002 0  0.7999999999999998 0.2000000000000002 0  1 0.2000000000000002 0  1.2 0.2000000000000002 0  1.4 0.2000000000000002 0  1.6 0.2000000000000002 0  1.8 0.2000000000000002 0  2 0.2000000000000002 0  -2 0.3999999999999999 0  -1.8 0.3999999999999999 0  -1.6 0.3999999999999999 0  -1.4 0.3999999999999999 0  -1.2 0.3999999999999999 0  -1 0.3999999999999999 0  -0.8 0.3999999999999999 0  -0.6000000000000001 0.3999999999999999 0  -0.3999999999999999 0.3999999999999999 0  -0.2 0.3999999999999999 0  0 0.3999999999999999 0  0.2000000000000002 0.3999999999999999 0  0.3999999999999999 0.3999999999999999 0  0.6000000000000001 0.3999999999999999 0  0.7999999999999998 0.3999999999999999 0  1 0.3999999999999999 0  1.2 0.3999999999999999 0  1.4 0.3999999999999999 0  1.6 0.3999999999999999 0  1.8 0.3999999999999999 0  2 0.3999999999999999 0  -2 0.6000000000000001 0  -1.8 0.6000000000000001 0  -1.6 0.6000000000000001 0  -1.4 0.6000000000000001 0  -1.2 0.6000000000000001 0  -1 0.6000000000000001 0  -0.8 0.6000000000000001 0  -0.6000000000000001 0.6000000000000001 0  -0.3999999999999999 0.6000000000000001 0  -0.2 0.6000000000000001 0  0 0.6000000000000001 0  0.2000000000000002 0.6000000000000001 0  0.3999999999999999 0.6000000000000001 0  0.6000000000000001 0.6000000000000001 0  0.7999999999999998 0.6000000000000001 0  1 0.6000000000000001 0  1.2 0.6000000000000001 0  1.4 0.6000000000000001 0  1.6 0.6000000000000001 0  1.8 0.6000000000000001 0  2 0.6000000000000001 0  -2 0.7999999999999998 0  -1.8 0.7999999999999998 0  -1.6 0.7999999999999998 0  -1.4 0.7999999999999998 0  -1.2 0.7999999999999998 0  -1 0.7999999999999998 0  -0.8 0.7999999999999998 0  -0.6000000000000001 0.7999999999999998 0  -0.3999999999999999 0.7999999999999998 0  -0.2 0.7999999999999998 0  0 0.7999999999999998 0  0.2000000000000002 0.7999999999999998 0  0.3999999999999999 0.7999999999999998 0  0.6000000000000001 0.7999999999999998 0  0.7999999999999998 0.7999999999999998 0  1 0.7999999999999998 0  1.2 0.7999999999999998 0  1.4 0.7999999999999998 0  1.6 0.7999999999999998 0  1.8 0.7999999999999998 0  2 0.7999999999999998 0  -2 1 0  -1.8 1 0  -1.6 1 0  -1.4 1 0  -1.2 1 0  -1 1 0  -0.8 1 0  -0.6000000000000001 1 0  -0.3999999999999999 1 0  -0.2 1 0  0 1 0  0.2000000000000002 1 0  0.3999999999999999 1 0  0.6000000000000001 1 0  0.7999999999999998 1 0  1 1 0  1.2 1 0  1.4 1 0  1.6 1 0  1.8 1 0  2 1 0  -2 1.2 0  -1.8 1.2 0  -1.6 1.2 0  -1.4 1.2 0  -1.2 1.2 0  -1 1.2 0  -0.8 1.2 0  -0.6000000000000001 1.2 0  -0.3999999999999999 1.2 0  -0.2 1.2 0  0 1.2 0  0.2000000000000002 1.2 0  0.3999999999999999 1.2 0  0.6000000000000001 1.2 0  0.7999999999999998 1.2 0  1 1.2 0  1.2 1.2 0  1.4 1.2 0  1.6 1.2 0  1.8 1.2 0  2 1.2 0  -2 1.4 0  -1.8 1.4 0  -1.6 1.4 0  -1.4 1.4 0  -1.2 1.4 0  -1 1.4 0  -0.8 1.4 0  -0.6000000000000001 1.4 0  -0.3999999999999999 1.4 0  -0.2 1.4 0  0 1.4 0  0.2000000000000002 1.4 0  0.3999999999999999 1.4 0  0.6000000000000001 1.4 0  0.7999999999999998 1.4 0  1 1.4 0  1.2 1.4 0  1.4 1.4 0  1.6 1.4 0  1.8 1.4 0  2 1.4 0  -2 1.6 0  -1.8 1.6 0  -1.6 1.6 0  -1.4 1.6 0  -1.2 1.6 0  -1 1.6 0  -0.8 1.6 0  -0.6000000000000001 1.6 0  -0.3999999999999999 1.6 0  -0.2 1.6 0  0 1.6 0  0.2000000000000002 1.6 0  0.3999999999999999 1.6 0  0.6000000000000001 1.6 0  0.7999999999999998 1.6 0  1 1.6 0  1.2 1.6 0  1.4 1.6 0  1.6 1.6 0  1.8 1.6 0  2 1.6 0  -2 1.8 0  -1.8 1.8 0  -1.6 1.8 0  -1.4 1.8 0  -1.2 1.8 0  -1 1.8 0  -0.8 1.8 0  -0.6000000000000001 1.8 0  -0.3999999999999999 1.8 0  -0.2 1.8 0  0 1.8 0  0.2000000000000002 1.8 0  0.3999999999999999 1.8 0  0.6000000000000001 1.8 0  0.7999999999999998 1.8 0  1 1.8 0  1.2 1.8 0  1.4 1.8 0  1.6 1.8 0  1.8 1.8 0  2 1.8 0  -2 2 0  -1.8 2 0  -1.6 2 0  -1.4 2 0  -1.2 2 0  -1 2 0  -0.8 2 0  -0.6000000000000001 2 0  -0.3999999999999999 2 0  -0.2 2 0  0 2 0  0.2000000000000002 2 0  0.3999999999999999 2 0  0.6000000000000001 2 0  0.7999999999999998 2 0  1 2 0  1.2 2 0  1.4 2 0  1.6 2 0  1.8 2 0  2 2 0  </DataArray>
</Points>
<Cells>
[...]
<PointData  Scalars="f_8"> 
<DataArray  type="Float64"  Name="f_8"  format="ascii">6.8963365913356256e-01  6.8110416981810018e-01  6.6016775388622662e-01  6.2791132720681953e-01  5.8608897824050388e-01  5.3692032891326669e-01  4.8286934039059909e-01  4.2642644922256673e-01  3.6991649691370870e-01  3.1535003276531520e-01  2.6432805048992186e-01  2.1800201574784961e-01  1.7708383976492095e-01  1.4189538096415030e-01  1.1244456727092639e-01  8.8515171341443266e-02  6.9759060360692043e-02  5.5782616114249832e-02  4.6222251861879698e-02  4.0807017242441207e-02  3.9408966856015651e-02  6.8614583291560582e-01  6.7937967471184535e-01  6.5963735889467834e-01  6.2818500898939522e-01  5.8687705112537636e-01  5.3799533141578859e-01  4.8405000841708679e-01  4.2757236245700336e-01  3.7092652007906662e-01  3.1616069689586679e-01  2.6491010338508786e-01  2.1835476438206208e-01  1.7722772598227568e-01  1.4186355835366693e-01  1.1227417070447331e-01  8.8238582861969811e-02  6.9394842685264496e-02  5.5324909604192861e-02  4.5626197994495396e-02  3.9965879471514615e-02  3.8115461058594910e-02  6.8552303094467526e-01  6.7888725560294594e-01  6.5938637413677703e-01  6.2818776559176115e-01  5.8709335834797916e-01  5.3836083731625339e-01  4.8449428664787869e-01  4.2803048899301316e-01  3.7134597806531500e-01  3.1650463293123843e-01  2.6515769249784876e-01  2.1849940624914468e-01  1.7727380983385549e-01  1.4182251027965520e-01  1.1216041459846669e-01  8.8065933537281552e-02  6.9173769655723499e-02  5.5061154584829929e-02  4.5321529857007978e-02  3.9622534204766684e-02  3.7747400941646685e-02  6.8540076371181735e-01  6.7878433345909883e-01  6.5933273062046072e-01  6.2819645438561755e-01  5.8716182112611714e-01  5.3847555055598917e-01  4.8463606727002068e-01  4.2817912698778382e-01  3.7148363079149438e-01  3.1661784998710274e-01  2.6523818917178094e-01  2.1854384075158081e-01  1.7728288089321875e-01  1.4179969793095204e-01  1.1211065493856434e-01  8.7994464829578484e-02  6.9085327984734907e-02  5.4959640926382447e-02  4.5210209361801840e-02  3.9504723186907578e-02  3.7627347001485623e-02  6.8538333972210608e-01  6.7877063643855717e-01  6.5932882611564647e-01  6.2820558066662535e-01  5.8718397593474281e-01  5.3850803886183518e-01  4.8467453600865673e-01  4.2821867899687194e-01  3.7151975402406556e-01  3.1664703663396471e-01  2.6525822394271259e-01  2.1855380456565857e-01  1.7728295104367411e-01  1.4179083608433130e-01  1.1209426764007588e-01  8.7972104145977101e-02  6.9058477676210761e-02  5.4929609158580160e-02  4.5178123118526217e-02  3.9471591417115030e-02  3.7594130721894652e-02  6.8538290502516530e-01  6.7877087863604324e-01  6.5933076419754066e-01  6.2820975448047567e-01  5.8719035196282365e-01  5.3851608354234182e-01  4.8468339451887549e-01  4.2822738621129119e-01  3.7152742043187154e-01  3.1665297701194128e-01  2.6526201949187073e-01  2.1855530556250047e-01  1.7728223622338346e-01  1.4178814809142729e-01  1.1208994262550978e-01  8.7966509612465341e-02  6.9051967357788013e-02  5.4922498088453814e-02  4.5170680817191500e-02  3.9464046991916732e-02  3.7586681619354537e-02  6.8538353631688120e-01  6.7877160618727705e-01  6.5933172651863370e-01  6.2821101425083425e-01  5.8719188438604675e-01  5.3851778916376991e-01  4.8468512805489489e-01  4.2822899035190382e-01  3.7152875545092345e-01  3.1665394082981058e-01  2.6526255663360065e-01  2.1855540626896408e-01  1.7728192855969119e-01  1.4178748639814884e-01  1.1208899536700891e-01  8.7965348905780547e-02  6.9050661488441828e-02  5.4921107350306225e-02  4.5169256211734475e-02  3.9462630811787636e-02  3.7585308818121152e-02  6.8538376537207812e-01  6.7877184272879765e-01  6.5933198532034620e-01  6.2821129950618815e-01  5.8719218891306579e-01  5.3851809671556217e-01  4.8468541754417138e-01  4.2822924050730937e-01  3.7152894870011932e-01  3.1665406573854854e-01  2.6526260875841129e-01  2.1855538766506027e-01  1.7728184638949820e-01  1.4178735113191676e-01  1.1208881900110905e-01  8.7965143495667336e-02  6.9050438144542273e-02  5.4920875708983428e-02  4.5169024292479848e-02  3.9462405119025823e-02  3.7585094544652156e-02  6.8538381741474741e-01  6.7877189400921334e-01  6.5933203698374832e-01  6.2821135143839346e-01  5.8719223975820511e-01  5.3851814423660760e-01  4.8468545916734884e-01  4.2822927387319409e-01  3.7152897208725355e-01  3.1665407829372327e-01  2.6526261053129252e-01  2.1855537948826748e-01  1.7728182966545913e-01  1.4178732758863166e-01  1.1208879046682921e-01  8.7965111724042019e-02  6.9050404702536303e-02  5.4920841923792894e-02  4.5168991243155203e-02  3.9462373654402236e-02  3.7585065310873876e-02  6.8538382665957509e-01  6.7877190282124888e-01  6.5933204540672385e-01  6.2821135939170769e-01  5.8719224705081841e-01  5.3851815061382291e-01  4.8468546437145588e-01  4.2822927769920949e-01  3.7152897442097288e-01  3.1665407912713311e-01  2.6526260995706996e-01  2.1855537767924196e-01  1.7728182684641591e-01  1.4178732400727209e-01  1.1208878636889541e-01  8.7965107335329626e-02  6.9050400218373290e-02  5.4920837504952733e-02  4.5168987016285446e-02  3.9462369714884912e-02  3.7585061726429912e-02  6.8538382794091746e-01  6.7877190399190657e-01  6.5933204646779986e-01  6.2821136033575320e-01  5.8719224786330015e-01  5.3851815127725389e-01  4.8468546487035602e-01  4.2822927802429084e-01  3.7152897457159550e-01  3.1665407911179577e-01  2.6526260979224919e-01  2.1855537738718539e-01  1.7728182645254498e-01  1.4178732353774171e-01  1.1208878584866257e-01  8.7965106786878827e-02  6.9050399661079176e-02  5.4920836954953617e-02  4.5168986486702763e-02  3.9462369216236699e-02  3.7585061267129044e-02  6.8538382721204205e-01  6.7877190319155034e-01  6.5933204564983927e-01  6.2821135955909468e-01  5.8719224718311003e-01  5.3851815073672238e-01  4.8468546449467992e-01  4.2822927781791520e-01  3.7152897451892225e-01  3.1665407918082394e-01  2.6526260994011586e-01  2.1855537756639773e-01  1.7728182661680392e-01  1.4178732364656227e-01  1.1208878587039538e-01  8.7965106700129914e-02  6.9050399454843009e-02  5.4920836627973556e-02  4.5168986046635079e-02  3.9462368679118648e-02  3.7585060657451493e-02  6.8538382035005319e-01  6.7877189611433808e-01  6.5933203885574210e-01  6.2821135355208380e-01  5.8719224238878309e-01  5.3851814743343174e-01  4.8468546277436236e-01  4.2822927758204632e-01  3.7152897550611591e-01  3.1665408101635423e-01  2.6526261219499075e-01  2.1855537981426301e-01  1.7728182847989546e-01  1.4178732482593670e-01  1.1208878615968437e-01  8.7965105985332526e-02  6.9050397704790392e-02  5.4920833880957275e-02  4.5168982398355234e-02  3.9462364275773182e-02  3.7585055695717115e-02  6.8538377398592121e-01  6.7877184970069004e-01  6.5933199647059149e-01  6.2821131895973381e-01  5.8719221835633095e-01  5.3851813527617398e-01  4.8468546221279363e-01  4.2822928690069600e-01  3.7152899193565103e-01  3.1665410122754756e-01  2.6526263279418438e-01  2.1855539775466379e-01  1.7728184133906144e-01  1.4178733093648091e-01  1.1208878461028789e-01  8.7965096529009981e-02  6.9050380620261531e-02  5.4920809832036885e-02  4.5168952327453389e-02  3.9462329353260071e-02  3.7585017329727501e-02  6.8538349979934965e-01  6.7877158390754710e-01  6.5933176918999581e-01  6.2821115526353566e-01  5.8719213349661892e-01  5.3851813239838542e-01  4.8468553274217135e-01  4.2822941306237422e-01  3.7152915048714785e-01  3.1665426743564407e-01  2.6526278387566188e-01  2.1855551530139222e-01  1.7728191256119333e-01  1.4178734881662286e-01  1.1208874723496458e-01  8.7965005946849709e-02  6.9050241580784308e-02  5.4920628703152945e-02  4.5168736392956675e-02  3.9462086572492464e-02  3.7584756521098217e-02  6.8538208356269847e-01  6.7877025858148188e-01  6.5933073512259521e-01  6.2821056075681714e-01  5.8719204704581185e-01  5.3851853641764802e-01  4.8468633610844214e-01  4.2823047562194427e-01  3.7153031171281103e-01  3.1665537267623411e-01  2.6526370395068272e-01  2.1855615765600969e-01  1.7728222425197895e-01  1.4178731299525640e-01  1.1208837550717665e-01  8.7964329109451400e-02  6.9049300934185515e-02  5.4919469548205743e-02  4.5167404566634366e-02  3.9460628058184510e-02  3.7583219420202887e-02  6.8537550516042356e-01  6.7876433031160865e-01  6.5932664814295650e-01  6.2820908793018404e-01  5.8719341656183766e-01  5.3852245705191970e-01  4.8469212831767849e-01  4.2823725055334538e-01  3.7153714806194876e-01  3.1666145779480892e-01  2.6526842314143229e-01  2.1855913014746572e-01  1.7728329433669501e-01  1.4178651018282740e-01  1.1208585905377839e-01  8.7960331025254690e-02  6.9044078580246360e-02  5.4913274971214482e-02  4.5160473180054291e-02  3.9453184379482489e-02  3.7575492879966928e-02  6.8534610318907474e-01  6.7873874485929653e-01  6.5931114531538471e-01  6.2820712660173561e-01  5.8720532354957855e-01  5.3854594921884724e-01  4.8472325650162795e-01  4.2827141750377967e-01  3.7156997383717583e-01  3.1668937944085562e-01  2.6528900303494790e-01  2.1857110601241139e-01  1.7728643654143161e-01  1.4178136375276071e-01  1.1207344492284346e-01  8.7941869191965533e-02  6.9020779634533541e-02  5.4886228373377463e-02  4.5130640326463911e-02  3.9421478889473470e-02  3.7542896595898621e-02  6.8521332569325000e-01  6.7862682500584881e-01  6.5924897960801021e-01  6.2820662155401308e-01  5.8726342066628390e-01  5.3864934127468711e-01  4.8485348054503363e-01  4.2840920437958174e-01  3.7169839052484216e-01  3.1679567568421907e-01  2.6536529165127781e-01  2.1861412552937765e-01  1.7729669459971092e-01  1.4176195886036011e-01  1.1202882981360920e-01  8.7876768695877683e-02  6.8939425195703993e-02  5.4792028851917370e-02  4.5026368221748034e-02  3.9309977384246020e-02  3.7428114752922577e-02  6.8459940432976285e-01  6.7815047424676800e-01  6.5901199782541231e-01  6.2821765059543022e-01  5.8748140286596506e-01  5.3901048658049366e-01  4.8528867136824061e-01  4.2885518489454050e-01  3.7210439783577581e-01  3.1712647829943763e-01  2.6560139313406012e-01  2.1874987204858692e-01  1.7733703170902398e-01  1.4171854206395540e-01  1.1191609485220602e-01  8.7708443526116509e-02  6.8725878303038376e-02  5.4538885318673194e-02  4.4735110648586832e-02  3.8981981981342180e-02  3.7075102859267677e-02  6.8115278867707407e-01  6.7643173843917803e-01  6.5847355350826065e-01  6.2848215651214534e-01  5.8826539269092681e-01  5.4008824359478635e-01  4.8647786937363580e-01  4.3001290447464846e-01  3.7312662361521276e-01  3.1794721427786021e-01  2.6618963941786400e-01  2.1910412567467757e-01  1.7747781672954455e-01  1.4167981758251735e-01  1.1173631934879322e-01  8.7421680329851231e-02  6.8352680029903301e-02  5.4075801712543323e-02  4.4140417048770766e-02  3.8153329908195255e-02  3.5811650619770513e-02  </DataArray> 
</PointData> 
</Piece>
</UnstructuredGrid>
</VTKFile>