<?xml version="1.0"?>
<VTKFile type="UnstructuredGrid"  version="0.1"  >
<UnstructuredGrid>
<Piece  NumberOfPoints="9261" NumberOfCells="48000">
<Points>
<DataArray  type="Float64"  NumberOfComponents="3"  format="ascii">-10 -10 -10  -9 -10 -10  -8 -10 -10  -7 -10 -10  -6 -10 -10  -5 -10 -10  -4 -10 -10  -3 -10 -10  -2 -10 -10  -1 -10 -10  0 -10 -10  1 -10 -10  2 -10 -10  3 -10 -10  4 -10 -10  5 -10 -10  6 -10 -10  7 -10 -10  8 -10 -10  9 -10 -10  10 -10 -10  -10 -9 -10  -9 -9 -10  -8 -9 -10  -7 -9 -10  -6 -9 -10  -5 -9 -10  -4 -9 -10  -3 -9 -10  -2 -9 -10  -1 -9 -10  0 -9 -10  1 -9 -10  2 -9 -10  3 -9 -10  4 -9 -10  5 -9 -10  6 -9 -10  7 -9 -10  8 -9 -10  9 -9 -10  10 -9 -10  -10 -8 -10  -9 -8 -10  -8 -8 -10  -7 -8 -10  -6 -8 -10  -5 -8 -10  -4 -8 -10  -3 -8 -10  -2 -8 -10  -1 -8 -10  0 -8 -10  1 -8 -10  2 -8 -10  3 -8 -10  4 -8 -10  5 -8 -10  6 -8 -10  7 -8 -10  8 -8 -10  9 -8 -10  10 -8 -10  -10 -7 -10  -9 -7 -10  -8 -7 -10  -7 -7 -10  -6 -7 -10  -5 -7 -10  -4 -7 -10  -3 -7 -10  -2 -7 -10  -1 -7 -10  0 -7 -10  1 -7 -10  2 -7 -10  3 -7 -10  4 -7 -10  5 -7 -10  6 -7 -10  7 -7 -10  8 -7 -10  9 -7 -10  10 -7 -10  -10 -6 -10  -9 -6 -10  -8 -6 -10  -7 -6 -10  -6 -6 -10  -5 -6 -10  -4 -6 -10  -3 -6 -10  -2 -6 -10  -1 -6 -10  0 -6 -10  1 -6 -10  2 -6 -10  3 -6 -10  4 -6 -10  5 -6 -10  6 -6 -10  7 -6 -10  8 -6 -10  9 -6 -10  10 -6 -10  -10 -5 -10  -9 -5 -10  -8 -5 -10  -7 -5 -10  -6 -5 -10  -5 -5 -10  -4 -5 -10  -3 -5 -10  -2 -5 -10  -1 -5 -10  0 -5 -10  1 -5 -10  2 -5 -10  3 -5 -10  4 -5 -10  5 -5 -10  6 -5 -10  7 -5 -10  8 -5 -10  9 -5 -10  10 -5 -10  -10 -4 -10  -9 -4 -10  -8 -4 -10  -7 -4 -10  -6 -4 -10  -5 -4 -10  -4 -4 -10  -3 -4 -10  -2 -4 -10  -1 -4 -10  0 -4 -10  1 -4 -10  2 -4 -10  3 -4 -10  4 -4 -10  5 -4 -10  6 -4 -10  7 -4 -10  8 -4 -10  9 -4 -10  10 -4 -10  -10 -3 -10  -9 -3 -10  -8 -3 -10  -7 -3 -10  -6 -3 -10  -5 -3 -10  -4 -3 -10  -3 -3 -10  -2 -3 -10  -1 -3 -10  0 -3 -10  1 -3 -10  2 -3 -10  3 -3 -10  4 -3 -10  5 -3 -10  6 -3 -10  7 -3 -10  8 -3 -10  9 -3 -10  10 -3 -10  -10 -2 -10  -9 -2 -10  -8 -2 -10  -7 -2 -10  -6 -2 -10  -5 -2 -10  -4 -2 -10  -3 -2 -10  -2 -2 -10  -1 -2 -10  0 -2 -10  1 -2 -10  2 -2 -10  3 -2 -10  4 -2 -10  5 -2 -10  6 -2 -10  7 -2 -10  8 -2 -10  9 -2 -10  10 -2 -10  -10 -1 -10  -9 -1 -10  -8 -1 -10  -7 -1 -10  -6 -1 -10  -5 -1 -10  -4 -1 -10  -3 -1 -10  -2 -1 -10  -1 -1 -10  0 -1 -10  1 -1 -10  2 -1 -10  3 -1 -10  4 -1 -10  5 -1 -10  6 -1 -10  7 -1 -10  8 -1 -10  9 -1 -10  10 -1 -10  -10 0 -10  -9 0 -10  -8 0 -10  -7 0 -10  -6 0 -10  -5 0 -10  -4 0 -10  -3 0 -10  -2 0 -10  -1 0 -10  0 0 -10  1 0 -10  2 0 -10  3 0 -10  4 0 -10  5 0 -10  6 0 -10  7 0 -10  8 0 -10  9 0 -10  10 0 -10  -10 1 -10  -9 1 -10  -8 1 -10  -7 1 -10  -6 1 -10  -5 1 -10  -4 1 -10  -3 1 -10  -2 1 -10  -1 1 -10  0 1 -10  1 1 -10  2 1 -10  3 1 -10  4 1 -10  5 1 -10  6 1 -10  7 1 -10  8 1 -10  9 1 -10  10 1 -10  -10 2 -10  -9 2 -10  -8 2 -10  -7 2 -10  -6 2 -10  -5 2 -10  -4 2 -10  -3 2 -10  -2 2 -10  -1 2 -10  0 2 -10  1 2 -10  2 2 -10  3 2 -10  4 2 -10  5 2 -10  6 2 -10  7 2 -10  8 2 -10  9 2 -10  10 2 -10  -10 3 -10  -9 3 -10  -8 3 -10  -7 3 -10  -6 3 -10  -5 3 -10  -4 3 -10  -3 3 -10  -2 3 -10  -1 3 -10  0 3 -10  1 3 -10  2 3 -10  3 3 -10  4 3 -10  5 3 -10  6 3 -10  7 3 -10  8 3 -10  9 3 -10  10 3 -10  -10 4 -10  -9 4 -10  -8 4 -10  -7 4 -10  -6 4 -10  -5 4 -10  -4 4 -10  -3 4 -10  -2 4 -10  -1 4 -10  0 4 -10  1 4 -10  2 4 -10  3 4 -10  4 4 -10  5 4 -10  6 4 -10  7 4 -10  8 4 -10  9 4 -10  10 4 -10  -10 5 -10  -9 5 -10  -8 5 -10  -7 5 -10  -6 5 -10  -5 5 -10  -4 5 -10  -3 5 -10  -2 5 -10  -1 5 -10  0 5 -10  1 5 -10  2 5 -10  3 5 -10  4 5 -10  5 5 -10  6 5 -10  7 5 -10  8 5 -10  9 5 -10  10 5 -10  -10 6 -10  -9 6 -10  -8 6 -10  -7 6 -10  -6 6 -10  -5 6 -10  -4 6 -10  -3 6 -10  -2 6 -10  -1 6 -10  0 6 -10  1 6 -10  2 6 -10  3 6 -10  4 6 -10  5 6 -10  6 6 -10  7 6 -10  8 6 -10  9 6 -10  10 6 -10  -10 7 -10  -9 7 -10  -8 7 -10  -7 7 -10  -6 7 -10  -5 7 -10  -4 7 -10  -3 7 -10  -2 7 -10  -1 7 -10  0 7 -10  1 7 -10  2 7 -10  3 7 -10  4 7 -10  5 7 -10  6 7 -10  7 7 -10  8 7 -10  9 7 -10  10 7 -10  -10 8 -10  -9 8 -10  -8 8 -10  -7 8 -10  -6 8 -10  -5 8 -10  -4 8 -10  -3 8 -10  -2 8 -10  -1 8 -10  0 8 -10  1 8 -10  2 8 -10  3 8 -10  4 8 -10  5 8 -10  6 8 -10  7 8 -10  8 8 -10  9 8 -10  10 8 -10  -10 9 -10  -9 9 -10  -8 9 -10  -7 9 -10  -6 9 -10  -5 9 -10  -4 9 -10  -3 9 -10  -2 9 -10  -1 9 -10  0 9 -10  1 9 -10  2 9 -10  3 9 -10  4 9 -10  5 9 -10  6 9 -10  7 9 -10  8 9 -10  9 9 -10  10 9 -10  -10 10 -10  -9 10 -10  -8 10 -10  -7 10 -10  -6 10 -10  -5 10 -10  -4 10 -10  -3 10 -10  -2 10 -10  -1 10 -10  0 10 -10  1 10 -10  2 10 -10  3 10 -10  4 10 -10  5 10 -10  6 10 -10  7 10 -10  8 10 -10  9 10 -10  10 10 -10  -10 -10 -9  -9 -10 -9  -8 -10 -9  -7 -10 -9  -6 -10 -9  -5 -10 -9  -4 -10 -9  -3 -10 -9  -2 -10 -9  -1 -10 -9  0 -10 -9  1 -10 -9  2 -10 -9  3 -10 -9  4 -10 -9  5 -10 -9  6 -10 -9  7 -10 -9  8 -10 -9  9 -10 -9  10 -10 -9  -10 -9 -9  -9 -9 -9  -8 -9 -9  -7 -9 -9  -6 -9 -9  -5 -9 -9  -4 -9 -9  -3 -9 -9  -2 -9 -9  -1 -9 -9  0 -9 -9  1 -9 -9  2 -9 -9  3 -9 -9  4 -9 -9  5 -9 -9  6 -9 -9  7 -9 -9  8 -9 -9  9 -9 -9  10 -9 -9  -10 -8 -9  -9 -8 -9  -8 -8 -9  -7 -8 -9  -6 -8 -9  -5 -8 -9  -4 -8 -9  -3 -8 -9  -2 -8 -9  -1 -8 -9  0 -8 -9  1 -8 -9  2 -8 -9  3 -8 -9  4 -8 -9  5 -8 -9  6 -8 -9  7 -8 -9  8 -8 -9  9 -8 -9  10 -8 -9  -10 -7 -9  -9 -7 -9  -8 -7 -9  -7 -7 -9  -6 -7 -9  -5 -7 -9  -4 -7 -9  -3 -7 -9  -2 -7 -9  -1 -7 -9  0 -7 -9  1 -7 -9  2 -7 -9  3 -7 -9  4 -7 -9  5 -7 -9  6 -7 -9  7 -7 -9  8 -7 -9  9 -7 -9  10 -7 -9  -10 -6 -9  -9 -6 -9  -8 -6 -9  -7 -6 -9  -6 -6 -9  -5 -6 -9  -4 -6 -9  -3 -6 -9  -2 -6 -9  -1 -6 -9  0 -6 -9  1 -6 -9  2 -6 -9  3 -6 -9  4 -6 -9  5 -6 -9  6 -6 -9  7 -6 -9  8 -6 -9  9 -6 -9  10 -6 -9  -10 -5 -9  -9 -5 -9  -8 -5 -9  -7 -5 -9  -6 -5 -9  -5 -5 -9  -4 -5 -9  -3 -5 -9  -2 -5 -9  -1 -5 -9  0 -5 -9  1 -5 -9  2 -5 -9  3 -5 -9  4 -5 -9  5 -5 -9  6 -5 -9  7 -5 -9  8 -5 -9  9 -5 -9  10 -5 -9  -10 -4 -9  -9 -4 -9  -8 -4 -9  -7 -4 -9  -6 -4 -9  -5 -4 -9  -4 -4 -9  -3 -4 -9  -2 -4 -9  -1 -4 -9  0 -4 -9  1 -4 -9  2 -4 -9  3 -4 -9  4 -4 -9  5 -4 -9  6 -4 -9  7 -4 -9  8 -4 -9  9 -4 -9  10 -4 -9  -10 -3 -9  -9 -3 -9  -8 -3 -9  -7 -3 -9  -6 -3 -9  -5 -3 -9  -4 -3 -9  -3 -3 -9  -2 -3 -9  -1 -3 -9  0 -3 -9  1 -3 -9  2 -3 -9  3 -3 -9  4 -3 -9  5 -3 -9  6 -3 -9  7 -3 -9  8 -3 -9  9 -3 -9  10 -3 -9  -10 -2 -9  -9 -2 -9  -8 -2 -9  -7 -2 -9  -6 -2 -9  -5 -2 -9  -4 -2 -9  -3 -2 -9  -2 -2 -9  -1 -2 -9  0 -2 -9  1 -2 -9  2 -2 -9  3 -2 -9  4 -2 -9  5 -2 -9  6 -2 -9  7 -2 -9  8 -2 -9  9 -2 -9  10 -2 -9  -10 -1 -9  -9 -1 -9  -8 -1 -9  -7 -1 -9  -6 -1 -9  -5 -1 -9  -4 -1 -9  -3 -1 -9  -2 -1 -9  -1 -1 -9  0 -1 -9  1 -1 -9  2 -1 -9  3 -1 -9  4 -1 -9  5 -1 -9  6 -1 -9  7 -1 -9  8 -1 -9  9 -1 -9  10 -1 -9  -10 0 -9  -9 0 -9  -8 0 -9  -7 0 -9  -6 0 -9  -5 0 -9  -4 0 -9  -3 0 -9  -2 0 -9  -1 0 -9  0 0 -9  1 0 -9  2 0 -9  3 0 -9  4 0 -9  5 0 -9  6 0 -9  7 0 -9  8 0 -9  9 0 -9  10 0 -9  -10 1 -9  -9 1 -9  -8 1 -9  -7 1 -9  -6 1 -9  -5 1 -9  -4 1 -9  -3 1 -9  -2 1 -9  -1 1 -9  0 1 -9  1 1 -9  2 1 -9  3 1 -9  4 1 -9  5 1 -9  6 1 -9  7 1 -9  8 1 -9  9 1 -9  10 1 -9  -10 2 -9  -9 2 -9  -8 2 -9  -7 2 -9  -6 2 -9  -5 2 -9  -4 2 -9  -3 2 -9  -2 2 -9  -1 2 -9  0 2 -9  1 2 -9  2 2 -9  3 2 -9  4 2 -9  5 2 -9  6 2 -9  7 2 -9  8 2 -9  9 2 -9  10 2 -9  -10 3 -9  -9 3 -9  -8 3 -9  -7 3 -9  -6 3 -9  -5 3 -9  -4 3 -9  -3 3 -9  -2 3 -9  -1 3 -9  0 3 -9  1 3 -9  2 3 -9  3 3 -9  4 3 -9  5 3 -9  6 3 -9  7 3 -9  8 3 -9  9 3 -9  10 3 -9  -10 4 -9  -9 4 -9  -8 4 -9  -7 4 -9  -6 4 -9  -5 4 -9  -4 4 -9  -3 4 -9  -2 4 -9  -1 4 -9  0 4 -9  1 4 -9  2 4 -9  3 4 -9  4 4 -9  5 4 -9  6 4 -9  7 4 -9  8 4 -9  9 4 -9  10 4 -9  -10 5 -9  -9 5 -9  -8 5 -9  -7 5 -9  -6 5 -9  -5 5 -9  -4 5 -9  -3 5 -9  -2 5 -9  -1 5 -9  0 5 -9  1 5 -9  2 5 -9  3 5 -9  4 5 -9  5 5 -9  6 5 -9  7 5 -9  8 5 -9  9 5 -9  10 5 -9  -10 6 -9  -9 6 -9  -8 6 -9  -7 6 -9  -6 6 -9  -5 6 -9  -4 6 -9  -3 6 -9  -2 6 -9  -1 6 -9  0 6 -9  1 6 -9  2 6 -9  3 6 -9  4 6 -9  5 6 -9  6 6 -9  7 6 -9  8 6 -9  9 6 -9  10 6 -9  -10 7 -9  -9 7 -9  -8 7 -9  -7 7 -9  -6 7 -9  -5 7 -9  -4 7 -9  -3 7 -9  -2 7 -9  -1 7 -9  0 7 -9  1 7 -9  2 7 -9  3 7 -9  4 7 -9  5 7 -9  6 7 -9  7 7 -9  8 7 -9  9 7 -9  10 7 -9  -10 8 -9  -9 8 -9  -8 8 -9  -7 8 -9  -6 8 -9  -5 8 -9  -4 8 -9  -3 8 -9  -2 8 -9  -1 8 -9  0 8 -9  1 8 -9  2 8 -9  3 8 -9  4 8 -9  5 8 -9  6 8 -9  7 8 -9  8 8 -9  9 8 -9  10 8 -9  -10 9 -9  -9 9 -9  -8 9 -9  -7 9 -9  -6 9 -9  -5 9 -9  -4 9 -9  -3 9 -9  -2 9 -9  -1 9 -9  0 9 -9  1 9 -9  2 9 -9  3 9 -9  4 9 -9  5 9 -9  6 9 -9  7 9 -9  8 9 -9  9 9 -9  10 9 -9  -10 10 -9  -9 10 -9  -8 10 -9  -7 10 -9  -6 10 -9  -5 10 -9  -4 10 -9  -3 10 -9  -2 10 -9  -1 10 -9  0 10 -9  1 10 -9  2 10 -9  3 10 -9  4 10 -9  5 10 -9  6 10 -9  7 10 -9  8 10 -9  9 10 -9  10 10 -9  -10 -10 -8  -9 -10 -8  -8 -10 -8  -7 -10 -8  -6 -10 -8  -5 -10 -8  -4 -10 -8  -3 -10 -8  -2 -10 -8  -1 -10 -8  0 -10 -8  1 -10 -8  2 -10 -8  3 -10 -8  4 -10 -8  5 -10 -8  6 -10 -8  7 -10 -8  8 -10 -8  9 -10 -8  10 -10 -8  -10 -9 -8  -9 -9 -8  -8 -9 -8  -7 -9 -8  -6 -9 -8  -5 -9 -8  -4 -9 -8  -3 -9 -8  -2 -9 -8  -1 -9 -8  0 -9 -8  1 -9 -8  2 -9 -8  3 -9 -8  4 -9 -8  5 -9 -8  6 -9 -8  7 -9 -8  8 -9 -8  9 -9 -8  10 -9 -8  -10 -8 -8  -9 -8 -8  -8 -8 -8  -7 -8 -8  -6 -8 -8  -5 -8 -8  -4 -8 -8  -3 -8 -8  -2 -8 -8  -1 -8 -8  0 -8 -8  1 -8 -8  2 -8 -8  3 -8 -8  4 -8 -8  5 -8 -8  6 -8 -8  7 -8 -8  8 -8 -8  9 -8 -8  10 -8 -8  -10 -7 -8  -9 -7 -8  -8 -7 -8  -7 -7 -8  -6 -7 -8  -5 -7 -8  -4 -7 -8  -3 -7 -8  -2 -7 -8  -1 -7 -8  0 -7 -8  1 -7 -8  2 -7 -8  3 -7 -8  4 -7 -8  5 -7 -8  6 -7 -8  7 -7 -8  8 -7 -8  9 -7 -8  10 -7 -8  -10 -6 -8  -9 -6 -8  -8 -6 -8  -7 -6 -8  -6 -6 -8  -5 -6 -8  -4 -6 -8  -3 -6 -8  -2 -6 -8  -1 -6 -8  0 -6 -8  1 -6 -8  2 -6 -8  3 -6 -8  4 -6 -8  5 -6 -8  6 -6 -8  7 -6 -8  8 -6 -8  9 -6 -8  10 -6 -8  -10 -5 -8  -9 -5 -8  -8 -5 -8  -7 -5 -8  -6 -5 -8  -5 -5 -8  -4 -5 -8  -3 -5 -8  -2 -5 -8  -1 -5 -8  0 -5 -8  1 -5 -8  2 -5 -8  3 -5 -8  4 -5 -8  5 -5 -8  6 -5 -8  7 -5 -8  8 -5 -8  9 -5 -8  10 -5 -8  -10 -4 -8  -9 -4 -8  -8 -4 -8  -7 -4 -8  -6 -4 
[...]
<PointData  Scalars="u"> 
<DataArray  type="Float64"  Name="u"  format="ascii">-8.6328203367988014e-12  9.8901666484804500e-12  2.3479407121261769e-11  1.0217344768461783e-11  -1.3608189901958992e-11  7.3156743747316463e-12  1.1730447950040284e-10  3.1808825527380373e-10  5.8514839256915738e-10  8.8150141588916643e-10  1.1264292824937300e-09  1.2370598498365127e-09  1.1399054280566239e-09  8.6721300847347190e-10  5.5229818779906000e-10  2.4623878805596406e-10  9.9571255331524560e-11  1.5007474581918004e-11  -3.8433119485648253e-11  2.4730119816229577e-11  -6.2581720347829774e-11  9.8901666421402301e-12  1.3281973400558869e-11  -2.8407700244496998e-12  -3.4539452370426366e-11  -4.8979637622913335e-11  -3.1253018578135025e-11  -2.2171645594593463e-11  -8.3670678565425897e-11  -2.6618370574914850e-10  -5.8580595172258503e-10  -9.8644572022530291e-10  -1.3369587335232578e-09  -1.5097825897356369e-09  -1.4159901207233809e-09  -1.1483224816950390e-09  -7.8925539165421860e-10  -4.6522412423936591e-10  -2.7259107980300052e-10  -8.4507837723641058e-11  -7.7082451168087643e-11  1.7455715261074340e-11  2.3479407127528716e-11  -2.8407700224732995e-12  -2.2579602034613761e-11  -8.3245800683942266e-13  7.8104608672585304e-11  1.4717550414027946e-10  1.3452437197307929e-10  4.2788217481472450e-11  -1.0206888630852107e-10  -2.2861467115554014e-10  -2.5184027774001884e-10  -1.1262807672445600e-10  1.5759498428990292e-10  4.3943812448954401e-10  5.5287109504782251e-10  5.3461311578406878e-10  3.4888566407945597e-10  2.2687471028915260e-10  9.3182959195537616e-11  2.6765934569482904e-11  4.5189077924850582e-11  1.0217344782770313e-11  -3.4539452381871553e-11  -8.3245800524180176e-13  2.7697279035090832e-11  2.4997865290472262e-11  -1.6194183144726089e-10  -4.1810872814222167e-10  -7.0016283941261184e-10  -9.6894403943645588e-10  -1.1353397330072680e-09  -1.0237268341500378e-09  -4.5090617082042244e-10  4.2106341999516883e-10  1.1760675405232768e-09  1.4215975722571350e-09  1.2450004899086733e-09  7.8348736957880751e-10  4.5727814533008141e-10  1.4827030914892370e-10  1.0465856193747615e-10  -2.0602682861009704e-11  -1.3608189912354504e-11  -4.8979637618998994e-11  7.8104608680288979e-11  2.4997865280675358e-11  6.0018120635108761e-11  -1.0640518813944312e-10  -3.1456429918288683e-11  -4.9003407178339721e-10  -1.3217662634448542e-09  -2.4045561578883565e-09  -2.2824190256846609e-09  -3.9885030802397254e-10  2.3169659164418137e-09  4.1290019077147404e-09  3.9335524307674654e-09  2.5101486470295539e-09  1.0237082091272542e-09  1.9722894383151697e-10  -6.0031817370927400e-11  -2.2456188362171579e-11  -1.1590961294657668e-10  7.3156743527860099e-12  -3.1253018565978804e-11  1.4717550413842831e-10  -1.6194183146238214e-10  -1.0640518808184321e-10  -9.5555405220806923e-10  -1.8913286240315269e-09  -5.5843305637484772e-09  -8.7563916435971099e-09  -1.0114008773818724e-08  -2.8122471528469514e-09  9.9146704546090766e-09  2.2466959131954613e-08  2.6064190836770672e-08  2.0236751884921252e-08  1.0706538951479334e-08  3.7635446633454444e-09  1.2908907585210256e-10  -3.9674434037012038e-10  -4.0640415485359747e-10  -2.7910511450403655e-10  1.1730447950950472e-10  -2.2171645633631667e-11  1.3452437199843291e-10  -4.1810872811431414e-10  -3.1456430008344179e-11  -1.8913286240312316e-09  -3.7683269698984130e-09  -1.0356523264227393e-08  -7.8914298486312079e-09  6.6907814894158477e-09  5.1514777037218674e-08  9.9132815258278394e-08  1.3184191444600592e-07  1.1798404989407968e-07  7.8096851031837245e-08  3.2425665594191850e-08  7.8727282137685270e-09  -3.8457364020719721e-09  -2.7370558294635666e-09  -1.6025586684457313e-09  -9.1516088743496028e-10  3.1808825525365376e-10  -8.3670678559386522e-11  4.2788217525931101e-11  -7.0016283946352883e-10  -4.9003407185782310e-10  -5.5843305633879340e-09  -1.0356523264680493e-08  -1.7467075568864867e-08  1.3199881920933385e-08  8.9075783326565853e-08  2.4233261303891135e-07  3.6564299263558132e-07  4.1811194632993235e-07  3.1167718040562405e-07  1.6912163846669399e-07  2.4773836176462911e-08  -1.7911578529587349e-08  -3.7799183378741910e-08  -1.5004763017521884e-08  -7.1058466173150202e-09  -2.2646128554404088e-09  5.8514839250327772e-10  -2.6618370567165377e-10  -1.0206888638482493e-10  -9.6894403938316725e-10  -1.3217662635183616e-09  -8.7563916433929899e-09  -7.8914298491790612e-09  1.3199881922070381e-08  1.4011336890787989e-07  3.7761343148673548e-07  7.4382164721781499e-07  9.4552503029697096e-07  9.1922271416717852e-07  4.9921779645233496e-07  1.2394096468178551e-07  -2.1251833511622342e-07  -1.8712311755675796e-07  -1.8933441483551914e-07  -5.1562901246225882e-08  -2.8923920308176565e-08  2.5596471127777851e-09  8.8150141594839701e-10  -5.8580595177759471e-10  -2.2861467106217360e-10  -1.1353397332462674e-09  -2.4045561574434003e-09  -1.0114008774476108e-08  6.6907814902742668e-09  8.9075783325543974e-08  3.7761343148660662e-07  8.5098299333341866e-07  1.4418119686579647e-06  1.5512752183002554e-06  1.1441443751918901e-06  3.8954397719249388e-08  -6.5559648881441041e-07  -1.1694916389881155e-06  -7.2220541474700290e-07  -6.0540580521430743e-07  -8.7270651683731618e-08  -9.0307705746251530e-08  5.4389890130538574e-08  1.1264292825941719e-09  -9.8644572025941108e-10  -2.5184027778495387e-10  -1.0237268340470553e-09  -2.2824190258232360e-09  -2.8122471527028557e-09  5.1514777037154955e-08  2.4233261303869265e-07  7.4382164721887812e-07  1.4418119686579590e-06  2.0542154636579278e-06  1.6142795401780252e-06  2.6934090871886031e-07  -1.9356913939678050e-06  -2.8413993692059295e-06  -3.2330371326974506e-06  -1.6626058297282154e-06  -1.2851948996183235e-06  5.7764264439388142e-08  -1.8848839024227244e-07  2.7663482408013370e-07  1.2370598499296285e-09  -1.3369587335177659e-09  -1.1262807686965625e-10  -4.5090617047405105e-10  -3.9885030854609365e-10  9.9146704551983022e-09  9.9132815257760142e-08  3.6564299263593644e-07  9.4552503029667620e-07  1.5512752182994153e-06  1.6142795401781827e-06  -4.5798153885059595e-08  -2.8137049850808082e-06  -6.0628445150284489e-06  -6.5227124420825851e-06  -5.9838732994008992e-06  -2.4042751322992068e-06  -1.6957702952600091e-06  8.6087306543012503e-07  -1.8663594830218395e-07  8.6468948540367158e-07  1.1399054281259030e-09  -1.5097825897567695e-09  1.5759498423557404e-10  4.2106342016610854e-10  2.3169659161694156e-09  2.2466959132294776e-08  1.3184191444577240e-07  4.1811194632980254e-07  9.1922271416769309e-07  1.1441443751919300e-06  2.6934090871877994e-07  -2.8137049850796063e-06  -6.8176647720448382e-06  -1.0321275147085518e-05  -9.3950604982529940e-06  -7.1124984869417980e-06  -1.2580527535579602e-06  -5.8918224308449235e-07  2.9263739419798078e-06  2.1455575166296994e-07  1.9467527562455412e-06  8.6721300851258162e-10  -1.4159901207716035e-09  4.3943812453514591e-10  1.1760675404643263e-09  4.1290019078187790e-09  2.6064190836538188e-08  1.1798404989437952e-07  3.1167718040528841e-07  4.9921779645265694e-07  3.8954397719160635e-08  -1.9356913939685597e-06  -6.0628445150288046e-06  -1.0321275147085913e-05  -1.2614781620450548e-05  -9.2777105286682804e-06  -4.6690507879740153e-06  2.8817107323646056e-06  2.9022491245140476e-06  6.4136144040455552e-06  1.3455006625205557e-06  3.3431870582609309e-06  5.5229818781515590e-10  -1.1483224817318686e-09  5.5287109511098292e-10  1.4215975721623997e-09  3.9335524308793250e-09  2.0236751884729395e-08  7.8096851032197552e-08  1.6912163846633323e-07  1.2394096468211943e-07  -6.5559648881455653e-07  -2.8413993692059003e-06  -6.5227124420823234e-06  -9.3950604982521792e-06  -9.2777105286682499e-06  -3.6129400386168453e-06  2.5548369216970447e-06  9.9930888999033172e-06  8.5268145391159399e-06  1.0509283632408567e-05  3.0374524557223219e-06  4.5236736818867369e-06  2.4623878806039067e-10  -7.8925539167349739e-10  5.3461311582116845e-10  1.2450004898621119e-09  2.5101486470613768e-09  1.0706538951470863e-08  3.2425665594238205e-08  2.4773836176277593e-08  -2.1251833511593247e-07  -1.1694916389886585e-06  -3.2330371326970321e-06  -5.9838732994018106e-06  -7.1124984869419446e-06  -4.6690507879754442e-06  2.5548369216958631e-06  9.5305111428283961e-06  1.5882730171359842e-05  1.3296259643426857e-05  1.3330992377726409e-05  4.7441967724412364e-06  4.9741883882592213e-06  9.9571255333839761e-11  -4.6522412424891147e-10  3.4888566409331621e-10  7.8348736956634841e-10  1.0237082091309277e-09  3.7635446633690869e-09  7.8727282137303840e-09  -1.7911578529582885e-08  -1.8712311755676323e-07  -7.2220541474701423e-07  -1.6626058297279469e-06  -2.4042751323000449e-06  -1.2580527535577192e-06  2.8817107323644548e-06  9.9930888999045233e-06  1.5882730171359324e-05  1.9705714585609200e-05  1.6074315934282634e-05  1.4022454991508871e-05  5.4970729309759693e-06  4.3635546417138431e-06  1.5007474584330641e-11  -2.7259107980595288e-10  2.2687471029122856e-10  4.5727814533295623e-10  1.9722894382339576e-10  1.2908907587716908e-10  -3.8457364021114096e-09  -3.7799183378724731e-08  -1.8933441483546106e-07  -6.0540580521439404e-07  -1.2851948996182470e-06  -1.6957702952600936e-06  -5.8918224308420860e-07  2.9022491245135868e-06  8.5268145391165769e-06  1.3296259643426941e-05  1.6074315934282444e-05  1.3437710593551435e-05  1.1260487601059542e-05  5.0657115838247448e-06  3.3708490759223746e-06  -3.8433119484965602e-11  -8.4507837724527278e-11  9.3182959194926291e-11  1.4827030915049376e-10  -6.0031817374956261e-11  -3.9674434036075307e-10  -2.7370558294818635e-09  -1.5004763017510634e-08  -5.1562901246186594e-08  -8.7270651683798070e-08  5.7764264439513265e-08  8.6087306542999268e-07  2.9263739419792059e-06  6.4136144040454552e-06  1.0509283632407985e-05  1.3330992377726272e-05  1.4022454991508730e-05  1.1260487601059697e-05  8.8362732629152659e-06  3.9987442415927623e-06  1.7396353556791356e-06  2.4730119816142749e-11  -7.7082451168063112e-11  2.6765934569652276e-11  1.0465856193712326e-10  -2.2456188361163430e-11  -4.0640415485506846e-10  -1.6025586684457609e-09  -7.1058466173125329e-09  -2.8923920308183137e-08  -9.0307705746206267e-08  -1.8848839024237901e-07  -1.8663594830229661e-07  2.1455575166321912e-07  1.3455006625208229e-06  3.0374524557229381e-06  4.7441967724415244e-06  5.4970729309764216e-06  5.0657115838241942e-06  3.9987442415927014e-06  1.6598641973857960e-06  1.2473647909530062e-06  -6.2581720348300207e-11  1.7455715261682334e-11  4.5189077924422665e-11  -2.0602682861326715e-11  -1.1590961294614733e-10  -2.7910511450576189e-10  -9.1516088743267096e-10  -2.2646128554420247e-09  2.5596471127792885e-09  5.4389890130542326e-08  2.7663482408007843e-07  8.6468948540385846e-07  1.9467527562455073e-06  3.3431870582610482e-06  4.5236736818859695e-06  4.9741883882590764e-06  4.3635546417127419e-06  3.3708490759223683e-06  1.7396353556795572e-06  1.2473647909528766e-06  7.1671960931485182e-07  -6.6854775568004411e-13  -2.0839328586239074e-11  -1.2020382671181440e-11  4.5220489687845209e-11  1.0952261555158614e-10  1.2631360092424251e-10  9.2020812671228710e-11  6.3215997457746667e-11  1.1355116642505560e-10  2.8502431772318250e-10  5.0099631098882207e-10  6.5469712249374142e-10  6.3359655891192036e-10  4.0812702111608882e-10  1.6425015584551786e-10  -1.0833569788864997e-10  -1.9575579973498359e-10  -1.5410475171709011e-10  -2.2967723432330346e-10  4.8825141671330398e-12  -1.2312195160621635e-10  -2.0839328587405687e-11  -1.3578043012180404e-11  1.0307187333815098e-11  1.9361566118382293e-11  -3.4681019759142458e-11  -1.4233672460695793e-10  -2.4987503248815014e-10  -3.1220693260366955e-10  -3.4889467629128329e-10  -4.4712804968407587e-10  -6.7417538299575447e-10  -9.9003716915350413e-10  -1.3018134181146728e-09  -1.4354181052031813e-09  -1.3833708205413238e-09  -1.1442200793526592e-09  -7.9285114332048177e-10  -5.5566396971233763e-10  -2.2946185323283959e-10  -1.6726550945116516e-10  6.5835448631030555e-13  -1.2020382676881567e-11  1.0307187337575346e-11  2.6447123776630681e-11  -5.4720470556091253e-13  -1.0772348186731224e-11  8.3782083336663092e-11  2.7555638699613520e-10  4.7803535132420863e-10  5.7028994451403487e-10  5.5091250629284122e-10  5.3582174910168977e-10  6.4580963239480882e-10  8.6069906208512513e-10  1.0698953258476634e-09  1.0568332074351561e-09  9.0503307630996383e-10  5.6889515835267035e-10  3.4790077815805134e-10  1.6654236126932638e-10  3.3648545408398354e-11  6.3139272466975310e-11  4.5220489713700491e-11  1.9361566085735336e-11  -5.4720468831309755e-13  -8.0073060085019753e-11  -5.8481279565494035e-11  -7.9992450796921110e-11  -2.5144420662642147e-10  -6.7822252638181652e-10  -1.1987340208861782e-09  -1.4598149482781821e-09  -1.1952243070209646e-09  -3.6054574420232014e-10  6.5998372208068996e-10  1.3983542288669159e-09  1.5619842440171765e-09  1.3510400864801499e-09  8.9829966125337221e-10  6.0490596521636620e-10  2.1587906823235613e-10  1.5269198805241557e-10  -3.0600657579518059e-11  1.0952261551651365e-10  -3.4681019731906231e-11  -1.0772348159006063e-11  -5.8481279617775507e-11  2.2149730219089883e-10  1.6899636227407809e-10  2.3064749758741137e-10  -9.9543355357007473e-12  2.6873261148029017e-10  1.0321085951405629e-09  2.7363746418288332e-09  4.7934804768005571e-09  5.9342610194277239e-09  5.3141019432701974e-09  3.3608553640957500e-09  1.2116358894640298e-09  -8.9467451529724601e-11  -5.2076286219532100e-10  -5.3367705493143280e-10  -1.4899813287570438e-10  -2.1129994541244825e-10  1.2631360092776354e-10  -1.4233672454965846e-10  8.3782083236617109e-11  -7.9992450747320789e-11  1.6899636232072955e-10  -9.9318016089109393e-10  -1.4188393795705890e-09  -3.1306714129107375e-09  -1.7740483833272704e-09  1.2813938016843852e-09  9.8414836130694509e-09  1.7804871619143777e-08  2.1445110829098394e-08  1.6626386767873662e-08  8.1224082406845287e-09  1.1500453378724229e-10  -2.8937889388826846e-09  -3.2036715196752858e-09  -2.0573697859969210e-09  -7.9889453767333902e-10  -4.5362487379711564e-10  9.2020812877061904e-11  -2.4987503263629317e-10  2.7555638704958916e-10  -2.5144420652035836e-10  2.3064749738333718e-10  -1.4188393794459122e-09  7.8035193331160932e-10  1.2112352618841301e-09  1.4421407553784904e-08  3.1730274131502568e-08  6.4608587845025271e-08  7.9523391806183466e-08  7.5939334423513995e-08  3.8706384314998629e-08  4.4647917475641181e-09  -2.1519875805274329e-08  -2.2102725199147737e-08  -1.6443987938466310e-08  -8.1182800049829081e-09  -2.4426143063196593e-09  -1.0843584796513258e-09  6.3215997382987337e-11  -3.1220693257948341e-10  4.7803535132683327e-10  -6.7822252626445118e-10  -9.9543358789176080e-12  -3.1306714123141637e-09  1.2112352611805834e-09  3.7748005282454758e-09  4.2307142616693959e-08  8.8476861545129220e-08  1.6481865128737696e-07  1.5831873794088716e-07  1.0473713127487297e-07  -4.3863235048395326e-08  -1.2156271755924034e-07  -1.7052826169745087e-07  -1.1475483791915043e-07  -7.1149196309872360e-08  -2.5825575723588572e-08  -6.7355945011445695e-09  -3.4241881355256942e-10  1.1355116624564063e-10  -3.4889467621459454e-10  5.7028994452877678e-10  -1.1987340209838285e-09  2.6873261164514644e-10  -1.7740483834780270e-09  1.4421407553812953e-08  4.2307142617202047e-08  1.4973217936688784e-07  2.5134321058215952e-07  3.5596386703149630e-07  1.8483577866167783e-07  -8.9402311015833149e-08  -5.5742441741181684e-07  -6.7213696757293885e-07  -7.1012370602239259e-07  -3.8488328265954028e-07  -2.2844568202051126e-07  -4.0284832978820857e-08  -9.0720262166786364e-09  2.2801486505269393e-08  2.8502431780226091e-10  -4.4712804980016271e-10  5.5091250646605191e-10  -1.4598149486392644e-09  1.0321085958021292e-09  1.2813938005388617e-09  3.1730274133133960e-08  8.8476861543249151e-08  2.5134321058316929e-07  3.2088445584768369e-07  2.4259992917949859e-07  -4.8856864750605428e-07  -1.3518105744593847e-06  -2.4156867703476737e-06  -2.3383076206153095e-06  -2.0935195070461600e-06  -8.8550597848933783e-07  -4.7931122219520727e-07  1.2951277224149454e-07  4.1594781159634439e-08  1.6518338558658442e-07  5.0099631104152010e-10  -6.7417538294121431e-10  5.3582174883126664e-10  -1.1952243065130037e-09  2.7363746410679958e-09  9.8414836138633722e-09  6.4608587844590412e-08  1.6481865128704644e-07  3.5596386703290619e-07  2.4259992917817986e-07  -3.9843151563979585e-07  -2.2920601899277251e-06  -4.2592083151906659e-06  -6.0982643318633722e-06  -5.2240729424430279e-06  -4.0427703666812262e-06  -9.1267117655385675e-07  -2.5279290039540510e-07  1.1424141493315145e-06  3.6221257134578460e-07  7.0262124153969957e-07  6.5469712254562178e-10  -9.9003716904305732e-10  6.4580963209801238e-10  -3.6054574363783084e-10  4.7934804760102804e-09  1.7804871620008501e-08  7.9523391805645480e-08  1.5831873794087803e-07  1.8483577866218970e-07  -4.8856864750781875e-07  -2.2920601899256435e-06  -5.9296638781503126e-06  -9.1746894060342984e-06  -1.1170091490405092e-05  -8.0604522262670444e-06  -4.6007427858708858e-06  1.6693820812299182e-06  2.1880557061701587e-06  4.4362400744203480e-06  1.5507513851058342e-06  2.1085374321352352e-06  6.3359655904770061e-10  -1.3018134181708911e-09  8.6069906212918294e-10  6.5998372204510579e-10  5.9342610195297641e-09  2.1445110828913976e-08  7.5939334423916931e-08  1.0473713127388192e-07  -8.9402311014478756e-08  -1.3518105744599359e-06  -4.2592083151906650e-06  -9.1746894060344170e-06  -1.2689436813319990e-05  -1.3080551788141844e-05  -5.9096388630047080e-06  1.1311832436384470e-06  1.0744974829534909e-05  9.7929498806776615e-06  1.1777045925690645e-05  4.4913467887988169e-06  4.8013833272613017e-06  4.0812702127171950e-10  -1.4354181053631388e-09  1.0698953260685202e-09  1.3983542285086652e-09  5.3141019437768033e-09  1.6626386767111355e-08  3.8706384315927347e-08  -4.3863235049284227e-08  -5.5742441741106404e-07  -2.4156867703476817e-06  -6.0982643318648511e-06  -1.1170091490404874e-05  -1.3080551788142596e-05  -9.3262755063484091e-06  3.7819007657459530e-06  1.5564320557533583e-05  2.7706947609366699e-05  2.3819068233405654e-05  2.3510958960513865e-05  9.7983165099286331e-06  8.6336201370170147e-06  1.6425015590513126e-10  -1.3833708206381894e-09  1.0568332075732268e-09  1.5619842438050965e-09  3.3608553642861860e-09  8.1224082404595703e-09  4.4647917479019006e-09  -1.2156271755962929e-07  -6.7213696757248346e-07  -2.3383076206156627e-06  -5.2240729424440019e-06  -8.0604522262661465e-06  -5.9096388630030351e-06  3.7819007657457942e-06  2.2716392137425651e-05  3.8300057224406843e-05  5.0376757104967424e-05  4.2271305676448003e-05  3.7261760136869222e-05  1.6589611494079815e-05  1.2533069781512559e-05  -1.0833569789358233e-10  -1.1442200793944673e-09  9.0503307637344787e-10  1.3510400863898009e-09  1.2116358895218729e-09  1.1500453379413375e-10  -2.1519875805312197e-08  -1.7052826169749343e-07  -7.1012370602227718e-07  -2.0935195070467152e-06  -4.0427703666808620e-06  -4.6007427858717523e-06  1.1311832436381889e-06  1.5564320557531093e-05  3.8300057224404125e-05  5.6419723522202664e-05  6.7384073785723493e-05  5.6677938521472268e-05  4.7252255169966104e-05  2.2563139918767271e-05  1.5093222940630577e-05  -1.9575579974574609e-10  -7.9285114334266572e-10  5.6889515838009076e-10  8.9829966121722184e-10  -8.9467451494260486e-11  -2.8937889388565850e-09  -2.2102725199245699e-08  -1.1475483791901793e-07  -3.8488328265970466e-07  -8.8550597848922020e-07  -9.1267117655338400e-07  1.6693820812289646e-06  1.0744974829535208e-05  2.7706947609366642e-05  5.0376757104970270e-05  6.7384073785722504e-05  7.4966741313476628e-05  6.2890982696325290e-05  5.0229604041932856e-05  2.5044473949068339e-05  1.4994737813931352e-05  -1.5410475171826135e-10  -5.5566396972095985e-10  3.4790077816383427e-10  6.0490596521508024e-10  -5.2076286219804945e-10  -3.2036715196250937e-09  -1.6443987938567368e-08  -7.1149196309785168e-08  -2.2844568202046089e-07  -4.7931122219532565e-07  -2.5279290039524195e-07  2.1880557061699664e-06  9.7929498806781172e-06  2.3819068233404302e-05  4.2271305676448870e-05  5.6677938521472580e-05  6.2890982696324843e